
     Program PWSCF v.6.4.1 starts on 17Oct2020 at 23:32:57 

     This program is part of the open-source Quantum ESPRESSO suite
     for quantum simulation of materials; please cite
         "P. Giannozzi et al., J. Phys.:Condens. Matter 21 395502 (2009);
         "P. Giannozzi et al., J. Phys.:Condens. Matter 29 465901 (2017);
          URL http://www.quantum-espresso.org", 
     in publications or presentations arising from this work. More details at
     http://www.quantum-espresso.org/quote

     Parallel version (MPI), running on     4 processors

     MPI processes distributed on     1 nodes
     R & G space division:  proc/nbgrp/npool/nimage =       4
     Reading input from si.pwi
Warning: card &IONS ignored
Warning: card / ignored
Warning: card &CELL ignored
Warning: card / ignored

     Current dimensions of program PWSCF are:
     Max number of different atomic species (ntypx) = 10
     Max number of k-points (npk) =  40000
     Max angular momentum in pseudopotentials (lmaxx) =  3
               file Si.pbe-n-kjpaw_psl.1.0.0.UPF: wavefunction(s)  3S 3P renormalized

     Subspace diagonalization in iterative solution of the eigenvalue problem:
     a serial algorithm will be used

     Message from routine setup:
     DEPRECATED: symmetry with ibrav=0, use correct ibrav instead

     Parallelization info
     --------------------
     sticks:   dense  smooth     PW     G-vecs:    dense   smooth      PW
     Min          73      73     22                  821      821     152
     Max          74      74     23                  823      823     153
     Sum         295     295     91                 3287     3287     609



     bravais-lattice index     =            0
     lattice parameter (alat)  =       7.2558  a.u.
     unit-cell volume          =     270.1072 (a.u.)^3
     number of atoms/cell      =            2
     number of atomic types    =            1
     number of electrons       =         8.00
     number of Kohn-Sham states=            4
     kinetic-energy cutoff     =      20.0000  Ry
     charge density cutoff     =      80.0000  Ry
     convergence threshold     =      1.0E-06
     mixing beta               =       0.7000
     number of iterations used =            8  plain     mixing
     Exchange-correlation      = SLA PW PBX PBC ( 1  4  3  4 0 0)

     celldm(1)=   7.255773  celldm(2)=   0.000000  celldm(3)=   0.000000
     celldm(4)=   0.000000  celldm(5)=   0.000000  celldm(6)=   0.000000

     crystal axes: (cart. coord. in units of alat)
               a(1) = (   0.000000   0.707107   0.707107 )  
               a(2) = (   0.707107   0.000000   0.707107 )  
               a(3) = (   0.707107   0.707107   0.000000 )  

     reciprocal axes: (cart. coord. in units 2 pi/alat)
               b(1) = ( -0.707107  0.707107  0.707107 )  
               b(2) = (  0.707107 -0.707107  0.707107 )  
               b(3) = (  0.707107  0.707107 -0.707107 )  


     PseudoPot. # 1 for Si read from file:
     /home/xing/datas/pseudo/Si.pbe-n-kjpaw_psl.1.0.0.UPF
     MD5 check sum: c39c59da582df4a0d9f10159256ea34e
     Pseudo is Projector augmented-wave + core cor, Zval =  4.0
     Generated using "atomic" code by A. Dal Corso v.6.3
     Shape of augmentation charge: PSQ
     Using radial grid of 1141 points,  6 beta functions with: 
                l(1) =   0
                l(2) =   0
                l(3) =   1
                l(4) =   1
                l(5) =   2
                l(6) =   2
     Q(r) pseudized with 0 coefficients 


     atomic species   valence    mass     pseudopotential
        Si             4.00    28.08500     Si( 1.00)

     48 Sym. Ops., with inversion, found (24 have fractional translation)



   Cartesian axes

     site n.     atom                  positions (alat units)
         1           Si  tau(   1) = (   0.0000000   0.0000000   0.0000000  )
         2           Si  tau(   2) = (   0.3535534   0.3535534   0.3535534  )

     number of k points=     8
                       cart. coord. in units 2pi/alat
        k(    1) = (   0.0000000   0.0000000   0.0000000), wk =   0.0312500
        k(    2) = (   0.1767767   0.1767767  -0.1767767), wk =   0.2500000
        k(    3) = (  -0.3535534  -0.3535534   0.3535534), wk =   0.1250000
        k(    4) = (   0.3535534   0.0000000   0.0000000), wk =   0.1875000
        k(    5) = (  -0.1767767  -0.5303301   0.5303301), wk =   0.7500000
        k(    6) = (   0.0000000  -0.3535534   0.3535534), wk =   0.3750000
        k(    7) = (  -0.7071068   0.0000000   0.0000000), wk =   0.0937500
        k(    8) = (  -0.7071068   0.3535534   0.0000000), wk =   0.1875000

     Dense  grid:     3287 G-vectors     FFT dimensions: (  24,  24,  24)

     Estimated max dynamical RAM per process >       3.88 MB

     Estimated total dynamical RAM >      15.53 MB

     Check: negative core charge=   -0.000010

     Initial potential from superposition of free atoms

     starting charge    7.99888, renormalised to    8.00000
     Starting wfcs are    8 randomized atomic wfcs
     Checking if some PAW data can be deallocated... 

     total cpu time spent up to now is        0.7 secs

     Self-consistent Calculation

     iteration #  1     ecut=    20.00 Ry     beta= 0.70
     Davidson diagonalization with overlap
     ethr =  1.00E-02,  avg # of iterations =  2.0

     Threshold (ethr) on eigenvalues was too large:
     Diagonalizing with lowered threshold

     Davidson diagonalization with overlap
     ethr =  7.62E-04,  avg # of iterations =  1.5

     total cpu time spent up to now is        0.8 secs

     total energy              =     -93.43468923 Ry
     Harris-Foulkes estimate   =     -93.44977664 Ry
     estimated scf accuracy    <       0.06106665 Ry

     iteration #  2     ecut=    20.00 Ry     beta= 0.70
     Davidson diagonalization with overlap
     ethr =  7.63E-04,  avg # of iterations =  1.0

     total cpu time spent up to now is        1.0 secs

     total energy              =     -93.43686432 Ry
     Harris-Foulkes estimate   =     -93.43708674 Ry
     estimated scf accuracy    <       0.00291044 Ry

     iteration #  3     ecut=    20.00 Ry     beta= 0.70
     Davidson diagonalization with overlap
     ethr =  3.64E-05,  avg # of iterations =  2.6

     total cpu time spent up to now is        1.1 secs

     total energy              =     -93.43745042 Ry
     Harris-Foulkes estimate   =     -93.43750540 Ry
     estimated scf accuracy    <       0.00012188 Ry

     iteration #  4     ecut=    20.00 Ry     beta= 0.70
     Davidson diagonalization with overlap
     ethr =  1.52E-06,  avg # of iterations =  2.4

     total cpu time spent up to now is        1.2 secs

     total energy              =     -93.43747588 Ry
     Harris-Foulkes estimate   =     -93.43749493 Ry
     estimated scf accuracy    <       0.00003703 Ry

     iteration #  5     ecut=    20.00 Ry     beta= 0.70
     Davidson diagonalization with overlap
     ethr =  4.63E-07,  avg # of iterations =  2.0

     total cpu time spent up to now is        1.3 secs

     End of self-consistent calculation

          k = 0.0000 0.0000 0.0000 (   411 PWs)   bands (ev):

    -5.7186   6.2617   6.2617   6.2617

          k = 0.1768 0.1768-0.1768 (   401 PWs)   bands (ev):

    -4.9184   2.3198   5.4941   5.4941

          k =-0.3536-0.3536 0.3536 (   410 PWs)   bands (ev):

    -3.3843  -0.7297   5.0521   5.0521

          k = 0.3536 0.0000 0.0000 (   415 PWs)   bands (ev):

    -4.6365   2.7367   4.3559   4.3559

          k =-0.1768-0.5303 0.5303 (   412 PWs)   bands (ev):

    -2.9982  -0.1368   2.7075   4.0402

          k = 0.0000-0.3536 0.3536 (   407 PWs)   bands (ev):

    -3.6733   0.7674   2.4873   4.9226

          k =-0.7071 0.0000 0.0000 (   412 PWs)   bands (ev):

    -1.5708  -1.5708   3.3904   3.3904

          k =-0.7071 0.3536 0.0000 (   412 PWs)   bands (ev):

    -1.4056  -1.4056   2.3858   2.3858

     highest occupied level (ev):     6.2617

!    total energy              =     -93.43748086 Ry
     Harris-Foulkes estimate   =     -93.43748105 Ry
     estimated scf accuracy    <       0.00000048 Ry

     total all-electron energy =     -1160.129211 Ry

     The total energy is the sum of the following terms:

     one-electron contribution =       5.74490646 Ry
     hartree contribution      =       1.12342258 Ry
     xc contribution           =     -12.32090996 Ry
     ewald contribution        =     -16.79894368 Ry
     one-center paw contrib.   =     -71.18595625 Ry

     convergence has been achieved in   5 iterations

     Writing output data file pwscf.save/

     init_run     :      0.16s CPU      0.18s WALL (       1 calls)
     electrons    :      0.57s CPU      0.59s WALL (       1 calls)

     Called by init_run:
     wfcinit      :      0.01s CPU      0.01s WALL (       1 calls)
     potinit      :      0.10s CPU      0.11s WALL (       1 calls)
     hinit0       :      0.05s CPU      0.05s WALL (       1 calls)

     Called by electrons:
     c_bands      :      0.08s CPU      0.08s WALL (       6 calls)
     sum_band     :      0.03s CPU      0.03s WALL (       6 calls)
     v_of_rho     :      0.01s CPU      0.01s WALL (       6 calls)
     newd         :      0.01s CPU      0.01s WALL (       6 calls)
     PAW_pot      :      0.54s CPU      0.56s WALL (       6 calls)
     mix_rho      :      0.00s CPU      0.00s WALL (       6 calls)

     Called by c_bands:
     init_us_2    :      0.00s CPU      0.00s WALL (     104 calls)
     cegterg      :      0.07s CPU      0.07s WALL (      48 calls)

     Called by sum_band:
     sum_band:bec :      0.00s CPU      0.00s WALL (      48 calls)
     addusdens    :      0.01s CPU      0.01s WALL (       6 calls)

     Called by *egterg:
     h_psi        :      0.06s CPU      0.06s WALL (     148 calls)
     s_psi        :      0.00s CPU      0.00s WALL (     148 calls)
     g_psi        :      0.00s CPU      0.00s WALL (      92 calls)
     cdiaghg      :      0.00s CPU      0.00s WALL (     132 calls)

     Called by h_psi:
     h_psi:pot    :      0.06s CPU      0.06s WALL (     148 calls)
     h_psi:calbec :      0.01s CPU      0.01s WALL (     148 calls)
     vloc_psi     :      0.05s CPU      0.05s WALL (     148 calls)
     add_vuspsi   :      0.00s CPU      0.00s WALL (     148 calls)

     General routines
     calbec       :      0.01s CPU      0.01s WALL (     196 calls)
     fft          :      0.01s CPU      0.01s WALL (      67 calls)
     ffts         :      0.00s CPU      0.00s WALL (       6 calls)
     fftw         :      0.05s CPU      0.06s WALL (    1324 calls)

     Parallel routines
     fft_scatt_xy :      0.01s CPU      0.01s WALL (    1397 calls)
     fft_scatt_yz :      0.02s CPU      0.03s WALL (    1397 calls)

     PWSCF        :      1.27s CPU      1.30s WALL


   This run was terminated on:  23:32:58  17Oct2020            

=------------------------------------------------------------------------------=
   JOB DONE.
=------------------------------------------------------------------------------=
