
     Program PWSCF v.6.4.1 starts on 17Oct2020 at 19:52:18 

     This program is part of the open-source Quantum ESPRESSO suite
     for quantum simulation of materials; please cite
         "P. Giannozzi et al., J. Phys.:Condens. Matter 21 395502 (2009);
         "P. Giannozzi et al., J. Phys.:Condens. Matter 29 465901 (2017);
          URL http://www.quantum-espresso.org", 
     in publications or presentations arising from this work. More details at
     http://www.quantum-espresso.org/quote

     Parallel version (MPI), running on     4 processors

     MPI processes distributed on     1 nodes
     R & G space division:  proc/nbgrp/npool/nimage =       4
     Reading input from feo.pwi
Warning: card &IONS ignored
Warning: card / ignored
Warning: card &CELL ignored
Warning: card / ignored

     Current dimensions of program PWSCF are:
     Max number of different atomic species (ntypx) = 10
     Max number of k-points (npk) =  40000
     Max angular momentum in pseudopotentials (lmaxx) =  3
     Message from routine volume:
     axis vectors are left-handed

     Subspace diagonalization in iterative solution of the eigenvalue problem:
     a serial algorithm will be used

     Message from routine setup:
     DEPRECATED: symmetry with ibrav=0, use correct ibrav instead

     Parallelization info
     --------------------
     sticks:   dense  smooth     PW     G-vecs:    dense   smooth      PW
     Min         265     134     44                 4313     1527     304
     Max         266     135     45                 4315     1528     305
     Sum        1061     539    179                17255     6111    1219



     bravais-lattice index     =            0
     lattice parameter (alat)  =      10.0307  a.u.
     unit-cell volume          =     274.6766 (a.u.)^3
     number of atoms/cell      =            4
     number of atomic types    =            3
     number of electrons       =        54.00
     number of Kohn-Sham states=           32
     kinetic-energy cutoff     =      30.0000  Ry
     charge density cutoff     =     240.0000  Ry
     convergence threshold     =      1.0E-08
     mixing beta               =       0.3000
     number of iterations used =            8  plain     mixing
     Exchange-correlation      = PBE ( 1  4  3  4 0 0)

     celldm(1)=  10.030660  celldm(2)=   0.000000  celldm(3)=   0.000000
     celldm(4)=   0.000000  celldm(5)=   0.000000  celldm(6)=   0.000000

     crystal axes: (cart. coord. in units of alat)
               a(1) = (   0.408248   0.408248   0.816497 )  
               a(2) = (   0.408248   0.816497   0.408248 )  
               a(3) = (   0.816497   0.408248   0.408248 )  

     reciprocal axes: (cart. coord. in units 2 pi/alat)
               b(1) = ( -0.612372 -0.612372  1.837117 )  
               b(2) = ( -0.612372  1.837117 -0.612372 )  
               b(3) = (  1.837117 -0.612372 -0.612372 )  


     PseudoPot. # 1 for O  read from file:
     /home/xing/datas/pseudo/O.pbe-n-rrkjus_psl.1.0.0.UPF
     MD5 check sum: 91400c9766925bcf19f520983a725ff0
     Pseudo is Ultrasoft + core correction, Zval =  6.0
     Generated using "atomic" code by A. Dal Corso v.6.3MaX
     Using radial grid of 1095 points,  4 beta functions with: 
                l(1) =   0
                l(2) =   0
                l(3) =   1
                l(4) =   1
     Q(r) pseudized with 0 coefficients 


     PseudoPot. # 2 for Fe read from file:
     /home/xing/datas/pseudo/Fe.pbe-spn-rrkjus_psl.1.0.0.UPF
     MD5 check sum: 72ea77fed8e64ab3a2ccf2804dfc1862
     Pseudo is Ultrasoft + core correction, Zval = 16.0
     Generated using "atomic" code by A. Dal Corso v.6.3
     Using radial grid of 1191 points,  6 beta functions with: 
                l(1) =   0
                l(2) =   0
                l(3) =   1
                l(4) =   1
                l(5) =   2
                l(6) =   2
     Q(r) pseudized with 0 coefficients 


     PseudoPot. # 3 for Fe read from file:
     /home/xing/datas/pseudo/Fe.pbe-spn-rrkjus_psl.1.0.0.UPF
     MD5 check sum: 72ea77fed8e64ab3a2ccf2804dfc1862
     Pseudo is Ultrasoft + core correction, Zval = 16.0
     Generated using "atomic" code by A. Dal Corso v.6.3
     Using radial grid of 1191 points,  6 beta functions with: 
                l(1) =   0
                l(2) =   0
                l(3) =   1
                l(4) =   1
                l(5) =   2
                l(6) =   2
     Q(r) pseudized with 0 coefficients 


     atomic species   valence    mass     pseudopotential
        O              6.00    15.99900     O ( 1.00)
        Fe1           16.00    15.99900     Fe( 1.00)
        Fe            16.00    55.84500     Fe( 1.00)

     Starting magnetic structure 
     atomic species   magnetization
        O            0.000
        Fe1         -0.500
        Fe           0.500


     Simplified LDA+U calculation (l_max = 2) with parameters (eV):
     atomic species    L          U    alpha       J0     beta
        Fe1            2     4.3000   0.0000   0.0000   0.0000
        Fe             2     4.3000   0.0000   0.0000   0.0000



     12 Sym. Ops., with inversion, found ( 6 have fractional translation)


                                    s                        frac. trans.

      isym =  1     identity                                     

 cryst.   s( 1) = (     1          0          0      )
                  (     0          1          0      )
                  (     0          0          1      )

 cart.    s( 1) = (  1.0000000  0.0000000  0.0000000 )
                  (  0.0000000  1.0000000  0.0000000 )
                  (  0.0000000  0.0000000  1.0000000 )


      isym =  2     180 deg rotation - cart. axis [1,-1,0]       

 cryst.   s( 2) = (    -1          0          0      )    f =( -0.5000000 )
                  (     0          0         -1      )       ( -0.5000000 )
                  (     0         -1          0      )       ( -0.5000000 )

 cart.    s( 2) = ( -0.0000000 -1.0000000 -0.0000000 )    f =( -0.8164966 )
                  ( -1.0000000 -0.0000000 -0.0000000 )       ( -0.8164966 )
                  ( -0.0000000 -0.0000000 -1.0000000 )       ( -0.8164966 )


      isym =  3     180 deg rotation - cart. axis [-1,0,1]       

 cryst.   s( 3) = (     0          0         -1      )    f =( -0.5000000 )
                  (     0         -1          0      )       ( -0.5000000 )
                  (    -1          0          0      )       ( -0.5000000 )

 cart.    s( 3) = ( -0.0000000 -0.0000000 -1.0000000 )    f =( -0.8164966 )
                  ( -0.0000000 -1.0000000 -0.0000000 )       ( -0.8164966 )
                  ( -1.0000000 -0.0000000 -0.0000000 )       ( -0.8164966 )


      isym =  4     180 deg rotation - cart. axis [0,1,-1]       

 cryst.   s( 4) = (     0         -1          0      )    f =( -0.5000000 )
                  (    -1          0          0      )       ( -0.5000000 )
                  (     0          0         -1      )       ( -0.5000000 )

 cart.    s( 4) = ( -1.0000000 -0.0000000 -0.0000000 )    f =( -0.8164966 )
                  ( -0.0000000 -0.0000000 -1.0000000 )       ( -0.8164966 )
                  ( -0.0000000 -1.0000000 -0.0000000 )       ( -0.8164966 )


      isym =  5     120 deg rotation - cart. axis [-1,-1,-1]     

 cryst.   s( 5) = (     0          1          0      )
                  (     0          0          1      )
                  (     1          0          0      )

 cart.    s( 5) = (  0.0000000  1.0000000  0.0000000 )
                  (  0.0000000  0.0000000  1.0000000 )
                  (  1.0000000  0.0000000  0.0000000 )


      isym =  6     120 deg rotation - cart. axis [1,1,1]        

 cryst.   s( 6) = (     0          0          1      )
                  (     1          0          0      )
                  (     0          1          0      )

 cart.    s( 6) = (  0.0000000  0.0000000  1.0000000 )
                  (  1.0000000  0.0000000  0.0000000 )
                  (  0.0000000  1.0000000  0.0000000 )


      isym =  7     inversion                                    

 cryst.   s( 7) = (    -1          0          0      )    f =( -0.5000000 )
                  (     0         -1          0      )       ( -0.5000000 )
                  (     0          0         -1      )       ( -0.5000000 )

 cart.    s( 7) = ( -1.0000000 -0.0000000 -0.0000000 )    f =( -0.8164966 )
                  ( -0.0000000 -1.0000000 -0.0000000 )       ( -0.8164966 )
                  ( -0.0000000 -0.0000000 -1.0000000 )       ( -0.8164966 )


      isym =  8     inv. 180 deg rotation - cart. axis [1,-1,0]  

 cryst.   s( 8) = (     1          0          0      )
                  (     0          0          1      )
                  (     0          1          0      )

 cart.    s( 8) = (  0.0000000  1.0000000  0.0000000 )
                  (  1.0000000  0.0000000  0.0000000 )
                  (  0.0000000  0.0000000  1.0000000 )


      isym =  9     inv. 180 deg rotation - cart. axis [-1,0,1]  

 cryst.   s( 9) = (     0          0          1      )
                  (     0          1          0      )
                  (     1          0          0      )

 cart.    s( 9) = (  0.0000000  0.0000000  1.0000000 )
                  (  0.0000000  1.0000000  0.0000000 )
                  (  1.0000000  0.0000000  0.0000000 )


      isym = 10     inv. 180 deg rotation - cart. axis [0,1,-1]  

 cryst.   s(10) = (     0          1          0      )
                  (     1          0          0      )
                  (     0          0          1      )

 cart.    s(10) = (  1.0000000  0.0000000  0.0000000 )
                  (  0.0000000  0.0000000  1.0000000 )
                  (  0.0000000  1.0000000  0.0000000 )


      isym = 11     inv. 120 deg rotation - cart. axis [-1,-1,-1]

 cryst.   s(11) = (     0         -1          0      )    f =( -0.5000000 )
                  (     0          0         -1      )       ( -0.5000000 )
                  (    -1          0          0      )       ( -0.5000000 )

 cart.    s(11) = ( -0.0000000 -1.0000000 -0.0000000 )    f =( -0.8164966 )
                  ( -0.0000000 -0.0000000 -1.0000000 )       ( -0.8164966 )
                  ( -1.0000000 -0.0000000 -0.0000000 )       ( -0.8164966 )


      isym = 12     inv. 120 deg rotation - cart. axis [1,1,1]   

 cryst.   s(12) = (     0          0         -1      )    f =( -0.5000000 )
                  (    -1          0          0      )       ( -0.5000000 )
                  (     0         -1          0      )       ( -0.5000000 )

 cart.    s(12) = ( -0.0000000 -0.0000000 -1.0000000 )    f =( -0.8164966 )
                  ( -1.0000000 -0.0000000 -0.0000000 )       ( -0.8164966 )
                  ( -0.0000000 -1.0000000 -0.0000000 )       ( -0.8164966 )


   Cartesian axes

     site n.     atom                  positions (alat units)
         1           O   tau(   1) = (   0.4082483   0.4082483   0.4082483  )
         2           Fe1 tau(   2) = (   1.2247449   1.2247449   1.2247449  )
         3           Fe  tau(   3) = (   0.0000000   0.0000000   0.0000000  )
         4           Fe  tau(   4) = (   0.8164966   0.8164966   0.8164966  )

   Crystallographic axes

     site n.     atom                  positions (cryst. coord.)
         1           O   tau(   1) = (  0.2500000  0.2500000  0.2500000  )
         2           Fe1 tau(   2) = (  0.7500000  0.7500000  0.7500000  )
         3           Fe  tau(   3) = (  0.0000000  0.0000000  0.0000000  )
         4           Fe  tau(   4) = (  0.5000000  0.5000000  0.5000000  )

     number of k points=    13  gaussian smearing, width (Ry)=  0.0300
                       cart. coord. in units 2pi/alat
        k(    1) = (   0.0000000   0.0000000   0.0000000), wk =   0.0156250
        k(    2) = (   0.4592793  -0.1530931  -0.1530931), wk =   0.0937500
        k(    3) = (  -0.9185587   0.3061862   0.3061862), wk =   0.0468750
        k(    4) = (   0.3061862   0.3061862  -0.3061862), wk =   0.0937500
        k(    5) = (  -1.0716518   0.7654655   0.1530931), wk =   0.1875000
        k(    6) = (  -0.6123724   0.6123724   0.0000000), wk =   0.0937500
        k(    7) = (  -0.6123724  -0.6123724   0.6123724), wk =   0.0468750
        k(    8) = (   0.1530931   0.1530931   0.1530931), wk =   0.0312500
        k(    9) = (  -1.2247449   0.6123724   0.6123724), wk =   0.0937500
        k(   10) = (  -0.7654655   0.4592793   0.4592793), wk =   0.0937500
        k(   11) = (  -0.7654655  -0.7654655   1.0716518), wk =   0.0937500
        k(   12) = (  -0.3061862  -0.9185587   0.9185587), wk =   0.0937500
        k(   13) = (  -0.3061862  -0.3061862  -0.3061862), wk =   0.0156250

                       cryst. coord.
        k(    1) = (   0.0000000   0.0000000   0.0000000), wk =   0.0156250
        k(    2) = (   0.0000000   0.0000000   0.2500000), wk =   0.0937500
        k(    3) = (  -0.0000000  -0.0000000  -0.5000000), wk =   0.0468750
        k(    4) = (   0.0000000   0.2500000   0.2500000), wk =   0.0937500
        k(    5) = (  -0.0000000   0.2500000  -0.5000000), wk =   0.1875000
        k(    6) = (   0.0000000   0.2500000  -0.2500000), wk =   0.0937500
        k(    7) = (  -0.0000000  -0.5000000  -0.5000000), wk =   0.0468750
        k(    8) = (   0.2500000   0.2500000   0.2500000), wk =   0.0312500
        k(    9) = (   0.2500000   0.2500000  -0.5000000), wk =   0.0937500
        k(   10) = (   0.2500000   0.2500000  -0.2500000), wk =   0.0937500
        k(   11) = (   0.2500000  -0.5000000  -0.5000000), wk =   0.0937500
        k(   12) = (   0.2500000  -0.5000000  -0.2500000), wk =   0.0937500
        k(   13) = (  -0.5000000  -0.5000000  -0.5000000), wk =   0.0156250

     Dense  grid:    17255 G-vectors     FFT dimensions: (  50,  50,  50)

     Smooth grid:     6111 G-vectors     FFT dimensions: (  36,  36,  36)

     Dynamical RAM for                 wfc:       0.09 MB

     Dynamical RAM for     wfc (w. buffer):       2.50 MB

     Dynamical RAM for             U proj.:       0.04 MB

     Dynamical RAM for  U proj. (w. buff.):       1.17 MB

     Dynamical RAM for           str. fact:       0.20 MB

     Dynamical RAM for           local pot:       0.00 MB

     Dynamical RAM for          nlocal pot:       0.18 MB

     Dynamical RAM for                qrad:       5.95 MB

     Dynamical RAM for          rho,v,vnew:       1.88 MB

     Dynamical RAM for               rhoin:       0.63 MB

     Dynamical RAM for            rho*nmix:       2.11 MB

     Dynamical RAM for           G-vectors:       0.26 MB

     Dynamical RAM for          h,s,v(r/c):       0.75 MB

     Dynamical RAM for          <psi|beta>:       0.03 MB

     Dynamical RAM for                 psi:       0.37 MB

     Dynamical RAM for                hpsi:       0.37 MB

     Dynamical RAM for                spsi:       0.37 MB

     Dynamical RAM for      wfcinit/wfcrot:       0.22 MB

     Dynamical RAM for           addusdens:      12.44 MB

     Estimated static dynamical RAM per process >      16.64 MB

     Estimated max dynamical RAM per process >      29.08 MB

     Estimated total dynamical RAM >     116.32 MB
     Generating pointlists ...
     new r_m :   0.1684 (alat units)  1.6892 (a.u.) for type    1
     new r_m :   0.1684 (alat units)  1.6892 (a.u.) for type    2
     new r_m :   0.1684 (alat units)  1.6892 (a.u.) for type    3

     Check: negative core charge=   -0.000019

     Initial potential from superposition of free atoms

     starting charge   53.99868, renormalised to   54.00000
 --- in v_hubbard ---
Hubbard energy    0.3793
 -------
     Number of +U iterations with fixed ns =  0
     Starting occupations:
 --- enter write_ns ---
 LDA+U parameters:
U( 2)     =  4.30000000
alpha( 2) =  0.00000000
U( 3)     =  4.30000000
alpha( 3) =  0.00000000
atom    2   Tr[ns(na)] (up, down, total) =   1.00000  5.00000  6.00000
   spin  1
    eigenvalues: 
  0.200  0.200  0.200  0.200  0.200
    eigenvectors:
  1.000  0.000  0.000  0.000  0.000
  0.000  1.000  0.000  0.000  0.000
  0.000  0.000  1.000  0.000  0.000
  0.000  0.000  0.000  1.000  0.000
  0.000  0.000  0.000  0.000  1.000
    occupations:
  0.200  0.000  0.000  0.000  0.000
  0.000  0.200  0.000  0.000  0.000
  0.000  0.000  0.200  0.000  0.000
  0.000  0.000  0.000  0.200  0.000
  0.000  0.000  0.000  0.000  0.200
   spin  2
    eigenvalues: 
  1.000  1.000  1.000  1.000  1.000
    eigenvectors:
  1.000  0.000  0.000  0.000  0.000
  0.000  1.000  0.000  0.000  0.000
  0.000  0.000  1.000  0.000  0.000
  0.000  0.000  0.000  1.000  0.000
  0.000  0.000  0.000  0.000  1.000
    occupations:
  1.000  0.000  0.000  0.000  0.000
  0.000  1.000  0.000  0.000  0.000
  0.000  0.000  1.000  0.000  0.000
  0.000  0.000  0.000  1.000  0.000
  0.000  0.000  0.000  0.000  1.000
atomic mag. moment =    -4.000000
atom    3   Tr[ns(na)] (up, down, total) =   5.00000  1.00000  6.00000
   spin  1
    eigenvalues: 
  1.000  1.000  1.000  1.000  1.000
    eigenvectors:
  1.000  0.000  0.000  0.000  0.000
  0.000  1.000  0.000  0.000  0.000
  0.000  0.000  1.000  0.000  0.000
  0.000  0.000  0.000  1.000  0.000
  0.000  0.000  0.000  0.000  1.000
    occupations:
  1.000  0.000  0.000  0.000  0.000
  0.000  1.000  0.000  0.000  0.000
  0.000  0.000  1.000  0.000  0.000
  0.000  0.000  0.000  1.000  0.000
  0.000  0.000  0.000  0.000  1.000
   spin  2
    eigenvalues: 
  0.200  0.200  0.200  0.200  0.200
    eigenvectors:
  1.000  0.000  0.000  0.000  0.000
  0.000  1.000  0.000  0.000  0.000
  0.000  0.000  1.000  0.000  0.000
  0.000  0.000  0.000  1.000  0.000
  0.000  0.000  0.000  0.000  1.000
    occupations:
  0.200  0.000  0.000  0.000  0.000
  0.000  0.200  0.000  0.000  0.000
  0.000  0.000  0.200  0.000  0.000
  0.000  0.000  0.000  0.200  0.000
  0.000  0.000  0.000  0.000  0.200
atomic mag. moment =     4.000000
atom    4   Tr[ns(na)] (up, down, total) =   5.00000  1.00000  6.00000
   spin  1
    eigenvalues: 
  1.000  1.000  1.000  1.000  1.000
    eigenvectors:
  1.000  0.000  0.000  0.000  0.000
  0.000  1.000  0.000  0.000  0.000
  0.000  0.000  1.000  0.000  0.000
  0.000  0.000  0.000  1.000  0.000
  0.000  0.000  0.000  0.000  1.000
    occupations:
  1.000  0.000  0.000  0.000  0.000
  0.000  1.000  0.000  0.000  0.000
  0.000  0.000  1.000  0.000  0.000
  0.000  0.000  0.000  1.000  0.000
  0.000  0.000  0.000  0.000  1.000
   spin  2
    eigenvalues: 
  0.200  0.200  0.200  0.200  0.200
    eigenvectors:
  1.000  0.000  0.000  0.000  0.000
  0.000  1.000  0.000  0.000  0.000
  0.000  0.000  1.000  0.000  0.000
  0.000  0.000  0.000  1.000  0.000
  0.000  0.000  0.000  0.000  1.000
    occupations:
  0.200  0.000  0.000  0.000  0.000
  0.000  0.200  0.000  0.000  0.000
  0.000  0.000  0.200  0.000  0.000
  0.000  0.000  0.000  0.200  0.000
  0.000  0.000  0.000  0.000  0.200
atomic mag. moment =     4.000000
N of occupied +U levels =   18.000000
 --- exit write_ns ---
 Atomic wfc used for LDA+U Projector are NOT orthogonalized
     Starting wfcs are   34 randomized atomic wfcs

     total cpu time spent up to now is        2.1 secs

     Self-consistent Calculation

     iteration #  1     ecut=    30.00 Ry     beta= 0.30
     Davidson diagonalization with overlap
     ethr =  1.00E-02,  avg # of iterations =  3.5
 --- enter write_ns ---
 LDA+U parameters:
U( 2)     =  4.30000000
alpha( 2) =  0.00000000
U( 3)     =  4.30000000
alpha( 3) =  0.00000000
atom    2   Tr[ns(na)] (up, down, total) =   1.61543  4.16868  5.78411
   spin  1
    eigenvalues: 
  0.274  0.274  0.303  0.382  0.382
    eigenvectors:
  0.005  0.000  0.000  0.222  0.773
  0.250  0.413  0.333  0.001  0.003
  0.094  0.569  0.333  0.004  0.000
  0.000  0.005  0.000  0.773  0.222
  0.651  0.013  0.333  0.001  0.003
    occupations:
  0.381 -0.003 -0.003  0.000 -0.006
 -0.003  0.284  0.009 -0.006 -0.009
 -0.003  0.009  0.284  0.006 -0.009
  0.000 -0.006  0.006  0.381 -0.000
 -0.006 -0.009 -0.009 -0.000  0.284
   spin  2
    eigenvalues: 
  0.828  0.828  0.836  0.838  0.838
    eigenvectors:
  0.296  0.688  0.000  0.016  0.000
  0.002  0.009  0.333  0.099  0.557
  0.011  0.000  0.333  0.239  0.417
  0.688  0.296  0.000  0.000  0.016
  0.003  0.008  0.333  0.646  0.010
    occupations:
  0.828 -0.001 -0.001  0.000 -0.001
 -0.001  0.837 -0.000 -0.001  0.000
 -0.001 -0.000  0.837  0.001  0.000
  0.000 -0.001  0.001  0.828 -0.000
 -0.001  0.000  0.000 -0.000  0.837
atomic mag. moment =    -2.553244
atom    3   Tr[ns(na)] (up, down, total) =   4.15227  0.86079  5.01305
   spin  1
    eigenvalues: 
  0.819  0.819  0.837  0.837  0.839
    eigenvectors:
  0.269  0.730  0.000  0.000  0.000
  0.000  0.000  0.176  0.490  0.333
  0.000  0.000  0.157  0.510  0.333
  0.730  0.269  0.000  0.000  0.000
  0.000  0.000  0.666  0.000  0.333
    occupations:
  0.819 -0.000 -0.000  0.000 -0.000
 -0.000  0.838  0.001 -0.000 -0.001
 -0.000  0.001  0.838  0.000 -0.001
  0.000 -0.000  0.000  0.819 -0.000
 -0.000 -0.001 -0.001 -0.000  0.838
   spin  2
    eigenvalues: 
  0.131  0.139  0.139  0.226  0.226
    eigenvectors:
  0.000  0.003  0.000  0.333  0.664
  0.333  0.152  0.512  0.000  0.002
  0.333  0.180  0.484  0.002  0.000
  0.000  0.000  0.003  0.664  0.333
  0.333  0.664  0.000  0.001  0.001
    occupations:
  0.226  0.002  0.002  0.000  0.004
  0.002  0.136 -0.003  0.004  0.003
  0.002 -0.003  0.136 -0.004  0.003
  0.000  0.004 -0.004  0.226 -0.000
  0.004  0.003  0.003 -0.000  0.136
atomic mag. moment =     3.291481
atom    4   Tr[ns(na)] (up, down, total) =   4.15227  0.86079  5.01305
   spin  1
    eigenvalues: 
  0.819  0.819  0.837  0.837  0.839
    eigenvectors:
  0.288  0.711  0.000  0.000  0.000
  0.000  0.000  0.171  0.495  0.333
  0.000  0.000  0.162  0.505  0.333
  0.711  0.288  0.000  0.000  0.000
  0.000  0.000  0.666  0.000  0.333
    occupations:
  0.819 -0.000 -0.000  0.000 -0.000
 -0.000  0.838  0.001 -0.000 -0.001
 -0.000  0.001  0.838  0.000 -0.001
  0.000 -0.000  0.000  0.819 -0.000
 -0.000 -0.001 -0.001 -0.000  0.838
   spin  2
    eigenvalues: 
  0.131  0.139  0.139  0.226  0.226
    eigenvectors:
  0.000  0.003  0.000  0.272  0.725
  0.333  0.161  0.504  0.000  0.002
  0.333  0.171  0.493  0.002  0.000
  0.000  0.000  0.003  0.725  0.272
  0.333  0.664  0.000  0.001  0.002
    occupations:
  0.226  0.002  0.002  0.000  0.004
  0.002  0.136 -0.003  0.004  0.003
  0.002 -0.003  0.136 -0.004  0.003
  0.000  0.004 -0.004  0.226 -0.000
  0.004  0.003  0.003 -0.000  0.136
atomic mag. moment =     3.291481
N of occupied +U levels =   15.810215
 --- exit write_ns ---
 --- in v_hubbard ---
Hubbard energy    0.7249
 -------

     total cpu time spent up to now is        3.9 secs

     total energy              =    -766.95662021 Ry
     Harris-Foulkes estimate   =    -767.69216899 Ry
     estimated scf accuracy    <       4.60606067 Ry

     total magnetization       =     5.00 Bohr mag/cell
     absolute magnetization    =    12.04 Bohr mag/cell

     iteration #  2     ecut=    30.00 Ry     beta= 0.30
     Davidson diagonalization with overlap
     ethr =  8.53E-03,  avg # of iterations =  2.7
 --- enter write_ns ---
 LDA+U parameters:
U( 2)     =  4.30000000
alpha( 2) =  0.00000000
U( 3)     =  4.30000000
alpha( 3) =  0.00000000
atom    2   Tr[ns(na)] (up, down, total) =   1.58603  4.14218  5.72821
   spin  1
    eigenvalues: 
  0.248  0.248  0.249  0.421  0.421
    eigenvectors:
  0.000  0.000  0.000  0.389  0.610
  0.185  0.481  0.333  0.000  0.000
  0.149  0.517  0.333  0.000  0.000
  0.000  0.000  0.000  0.610  0.389
  0.666  0.001  0.333  0.000  0.000
    occupations:
  0.421  0.001  0.001  0.000  0.003
  0.001  0.248  0.000  0.003 -0.000
  0.001  0.000  0.248 -0.003 -0.000
  0.000  0.003 -0.003  0.421 -0.000
  0.003 -0.000 -0.000 -0.000  0.248
   spin  2
    eigenvalues: 
  0.818  0.818  0.834  0.836  0.836
    eigenvectors:
  0.294  0.699  0.000  0.007  0.000
  0.001  0.004  0.333  0.137  0.525
  0.005  0.000  0.333  0.196  0.466
  0.699  0.294  0.000  0.000  0.007
  0.001  0.003  0.333  0.660  0.002
    occupations:
  0.818 -0.001 -0.001  0.000 -0.001
 -0.001  0.835 -0.001 -0.001  0.001
 -0.001 -0.001  0.835  0.001  0.001
  0.000 -0.001  0.001  0.818 -0.000
 -0.001  0.001  0.001 -0.000  0.835
atomic mag. moment =    -2.556153
atom    3   Tr[ns(na)] (up, down, total) =   4.17284  1.46670  5.63953
   spin  1
    eigenvalues: 
  0.825  0.825  0.841  0.841  0.841
    eigenvectors:
  0.282  0.718  0.000  0.000  0.000
  0.000  0.000  0.333  0.207  0.460
  0.000  0.000  0.333  0.130  0.537
  0.718  0.282  0.000  0.000  0.000
  0.000  0.000  0.333  0.664  0.003
    occupations:
  0.825 -0.000 -0.000  0.000 -0.000
 -0.000  0.841 -0.000 -0.000  0.000
 -0.000 -0.000  0.841  0.000  0.000
  0.000 -0.000  0.000  0.825 -0.000
 -0.000  0.000  0.000 -0.000  0.841
   spin  2
    eigenvalues: 
  0.197  0.208  0.208  0.427  0.427
    eigenvectors:
  0.000  0.002  0.000  0.232  0.766
  0.333  0.166  0.499  0.000  0.001
  0.333  0.166  0.499  0.001  0.000
  0.000  0.000  0.002  0.766  0.232
  0.333  0.665  0.000  0.000  0.001
    occupations:
  0.427  0.004  0.004  0.000  0.008
  0.004  0.204 -0.004  0.007  0.004
  0.004 -0.004  0.204 -0.007  0.004
  0.000  0.007 -0.007  0.427 -0.000
  0.008  0.004  0.004 -0.000  0.204
atomic mag. moment =     2.706143
atom    4   Tr[ns(na)] (up, down, total) =   4.17284  1.46670  5.63953
   spin  1
    eigenvalues: 
  0.825  0.825  0.841  0.841  0.841
    eigenvectors:
  0.269  0.731  0.000  0.000  0.000
  0.000  0.000  0.333  0.214  0.453
  0.000  0.000  0.333  0.124  0.543
  0.731  0.269  0.000  0.000  0.000
  0.000  0.000  0.333  0.663  0.004
    occupations:
  0.825 -0.000 -0.000  0.000 -0.000
 -0.000  0.841 -0.000 -0.000  0.000
 -0.000 -0.000  0.841  0.000  0.000
  0.000 -0.000  0.000  0.825 -0.000
 -0.000  0.000  0.000 -0.000  0.841
   spin  2
    eigenvalues: 
  0.197  0.208  0.208  0.427  0.427
    eigenvectors:
  0.000  0.002  0.000  0.299  0.699
  0.333  0.168  0.498  0.000  0.001
  0.333  0.165  0.501  0.001  0.000
  0.000  0.000  0.002  0.699  0.299
  0.333  0.665  0.000  0.000  0.001
    occupations:
  0.427  0.004  0.004  0.000  0.008
  0.004  0.204 -0.004  0.007  0.004
  0.004 -0.004  0.204 -0.007  0.004
  0.000  0.007 -0.007  0.427 -0.000
  0.008  0.004  0.004 -0.000  0.204
atomic mag. moment =     2.706143
N of occupied +U levels =   17.007282
 --- exit write_ns ---

     negative rho (up, down):  1.437E-04 0.000E+00
 --- in v_hubbard ---
Hubbard energy    0.7558
 -------

     total cpu time spent up to now is        5.2 secs

     total energy              =    -767.66624095 Ry
     Harris-Foulkes estimate   =    -767.47047532 Ry
     estimated scf accuracy    <       1.23186868 Ry

     total magnetization       =     3.92 Bohr mag/cell
     absolute magnetization    =    10.94 Bohr mag/cell

     iteration #  3     ecut=    30.00 Ry     beta= 0.30
     Davidson diagonalization with overlap
     ethr =  2.28E-03,  avg # of iterations =  2.5
 --- enter write_ns ---
 LDA+U parameters:
U( 2)     =  4.30000000
alpha( 2) =  0.00000000
U( 3)     =  4.30000000
alpha( 3) =  0.00000000
atom    2   Tr[ns(na)] (up, down, total) =   1.97738  4.13845  6.11584
   spin  1
    eigenvalues: 
  0.320  0.320  0.365  0.486  0.486
    eigenvectors:
  0.013  0.001  0.000  0.275  0.711
  0.297  0.361  0.333  0.002  0.007
  0.062  0.596  0.333  0.009  0.000
  0.001  0.013  0.000  0.711  0.275
  0.628  0.029  0.333  0.003  0.007
    occupations:
  0.484 -0.008 -0.008  0.000 -0.016
 -0.008  0.337  0.014 -0.014 -0.014
 -0.008  0.014  0.337  0.014 -0.014
  0.000 -0.014  0.014  0.484 -0.000
 -0.016 -0.014 -0.014 -0.000  0.337
   spin  2
    eigenvalues: 
  0.816  0.816  0.834  0.836  0.836
    eigenvectors:
  0.149  0.843  0.000  0.008  0.000
  0.002  0.004  0.333  0.132  0.529
  0.005  0.000  0.333  0.201  0.461
  0.843  0.149  0.000  0.000  0.008
  0.001  0.005  0.333  0.659  0.002
    occupations:
  0.817 -0.001 -0.001  0.000 -0.001
 -0.001  0.835 -0.001 -0.001  0.001
 -0.001 -0.001  0.835  0.001  0.001
  0.000 -0.001  0.001  0.817 -0.000
 -0.001  0.001  0.001 -0.000  0.835
atomic mag. moment =    -2.161070
atom    3   Tr[ns(na)] (up, down, total) =   4.15889  1.31999  5.47889
   spin  1
    eigenvalues: 
  0.821  0.821  0.839  0.839  0.840
    eigenvectors:
  0.192  0.808  0.000  0.000  0.000
  0.000  0.000  0.181  0.486  0.333
  0.000  0.000  0.153  0.514  0.333
  0.808  0.192  0.000  0.000  0.000
  0.000  0.000  0.666  0.000  0.333
    occupations:
  0.821 -0.000 -0.000  0.000 -0.000
 -0.000  0.839  0.000 -0.000 -0.000
 -0.000  0.000  0.839  0.000 -0.000
  0.000 -0.000  0.000  0.821 -0.000
 -0.000 -0.000 -0.000 -0.000  0.839
   spin  2
    eigenvalues: 
  0.165  0.168  0.168  0.409  0.409
    eigenvectors:
  0.000  0.002  0.000  0.242  0.757
  0.333  0.174  0.491  0.000  0.001
  0.333  0.158  0.507  0.001  0.000
  0.000  0.000  0.002  0.757  0.242
  0.333  0.665  0.000  0.000  0.001
    occupations:
  0.409  0.004  0.004  0.000  0.008
  0.004  0.167 -0.001  0.007  0.001
  0.004 -0.001  0.167 -0.007  0.001
  0.000  0.007 -0.007  0.409 -0.000
  0.008  0.001  0.001 -0.000  0.167
atomic mag. moment =     2.838902
atom    4   Tr[ns(na)] (up, down, total) =   4.15889  1.31999  5.47889
   spin  1
    eigenvalues: 
  0.821  0.821  0.839  0.839  0.840
    eigenvectors:
  0.191  0.809  0.000  0.000  0.000
  0.000  0.000  0.191  0.476  0.333
  0.000  0.000  0.143  0.523  0.333
  0.809  0.191  0.000  0.000  0.000
  0.000  0.000  0.665  0.001  0.333
    occupations:
  0.821 -0.000 -0.000  0.000 -0.000
 -0.000  0.839  0.000 -0.000 -0.000
 -0.000  0.000  0.839  0.000 -0.000
  0.000 -0.000  0.000  0.821 -0.000
 -0.000 -0.000 -0.000 -0.000  0.839
   spin  2
    eigenvalues: 
  0.165  0.168  0.168  0.409  0.409
    eigenvectors:
  0.000  0.002  0.000  0.150  0.848
  0.333  0.161  0.505  0.000  0.001
  0.333  0.172  0.493  0.001  0.000
  0.000  0.000  0.002  0.848  0.150
  0.333  0.665  0.000  0.000  0.001
    occupations:
  0.409  0.004  0.004  0.000  0.008
  0.004  0.167 -0.001  0.007  0.001
  0.004 -0.001  0.167 -0.007  0.001
  0.000  0.007 -0.007  0.409 -0.000
  0.008  0.001  0.001 -0.000  0.167
atomic mag. moment =     2.838902
N of occupied +U levels =   17.073610
 --- exit write_ns ---

     negative rho (up, down):  8.653E-04 0.000E+00
 --- in v_hubbard ---
Hubbard energy    0.7811
 -------

     total cpu time spent up to now is        6.4 secs

     total energy              =    -767.89712683 Ry
     Harris-Foulkes estimate   =    -767.73592476 Ry
     estimated scf accuracy    <       0.65364227 Ry

     total magnetization       =     4.49 Bohr mag/cell
     absolute magnetization    =    10.62 Bohr mag/cell

     iteration #  4     ecut=    30.00 Ry     beta= 0.30
     Davidson diagonalization with overlap
     ethr =  1.21E-03,  avg # of iterations =  3.0
 --- enter write_ns ---
 LDA+U parameters:
U( 2)     =  4.30000000
alpha( 2) =  0.00000000
U( 3)     =  4.30000000
alpha( 3) =  0.00000000
atom    2   Tr[ns(na)] (up, down, total) =   1.25376  3.98009  5.23385
   spin  1
    eigenvalues: 
  0.130  0.154  0.154  0.408  0.408
    eigenvectors:
  0.000  0.002  0.000  0.244  0.754
  0.333  0.179  0.487  0.000  0.001
  0.333  0.154  0.511  0.001  0.000
  0.000  0.000  0.002  0.754  0.244
  0.333  0.665  0.000  0.000  0.001
    occupations:
  0.408  0.005  0.005  0.000  0.009
  0.005  0.146 -0.008  0.008  0.008
  0.005 -0.008  0.146 -0.008  0.008
  0.000  0.008 -0.008  0.408 -0.000
  0.009  0.008  0.008 -0.000  0.146
   spin  2
    eigenvalues: 
  0.771  0.771  0.810  0.814  0.814
    eigenvectors:
  0.211  0.778  0.000  0.010  0.000
  0.002  0.005  0.333  0.121  0.539
  0.007  0.000  0.333  0.214  0.446
  0.778  0.211  0.000  0.000  0.010
  0.001  0.005  0.333  0.655  0.004
    occupations:
  0.772 -0.002 -0.002  0.000 -0.004
 -0.002  0.812 -0.001 -0.003  0.001
 -0.002 -0.001  0.812  0.003  0.001
  0.000 -0.003  0.003  0.772 -0.000
 -0.004  0.001  0.001 -0.000  0.812
atomic mag. moment =    -2.726330
atom    3   Tr[ns(na)] (up, down, total) =   4.15985  1.87089  6.03074
   spin  1
    eigenvalues: 
  0.821  0.821  0.839  0.839  0.839
    eigenvectors:
  0.256  0.743  0.000  0.001  0.000
  0.000  0.000  0.333  0.173  0.494
  0.000  0.000  0.333  0.161  0.506
  0.743  0.256  0.000  0.000  0.001
  0.000  0.000  0.333  0.666  0.000
    occupations:
  0.821 -0.000 -0.000  0.000 -0.000
 -0.000  0.839 -0.000 -0.000  0.000
 -0.000 -0.000  0.839  0.000  0.000
  0.000 -0.000  0.000  0.821 -0.000
 -0.000  0.000  0.000 -0.000  0.839
   spin  2
    eigenvalues: 
  0.251  0.261  0.261  0.548  0.548
    eigenvectors:
  0.000  0.001  0.000  0.300  0.699
  0.333  0.188  0.478  0.000  0.000
  0.333  0.146  0.520  0.000  0.000
  0.000  0.000  0.001  0.699  0.300
  0.333  0.665  0.001  0.000  0.000
    occupations:
  0.548  0.003  0.003  0.000  0.006
  0.003  0.258 -0.003  0.005  0.003
  0.003 -0.003  0.258 -0.005  0.003
  0.000  0.005 -0.005  0.548 -0.000
  0.006  0.003  0.003 -0.000  0.258
atomic mag. moment =     2.288966
atom    4   Tr[ns(na)] (up, down, total) =   4.15985  1.87089  6.03074
   spin  1
    eigenvalues: 
  0.821  0.821  0.839  0.839  0.839
    eigenvectors:
  0.340  0.660  0.000  0.001  0.000
  0.000  0.000  0.333  0.177  0.490
  0.000  0.000  0.333  0.157  0.510
  0.660  0.340  0.000  0.000  0.001
  0.000  0.000  0.333  0.666  0.000
    occupations:
  0.821 -0.000 -0.000  0.000 -0.000
 -0.000  0.839 -0.000 -0.000  0.000
 -0.000 -0.000  0.839  0.000  0.000
  0.000 -0.000  0.000  0.821 -0.000
 -0.000  0.000  0.000 -0.000  0.839
   spin  2
    eigenvalues: 
  0.251  0.261  0.261  0.548  0.548
    eigenvectors:
  0.000  0.001  0.000  0.283  0.716
  0.333  0.185  0.482  0.000  0.000
  0.333  0.149  0.517  0.000  0.000
  0.000  0.000  0.001  0.716  0.283
  0.333  0.666  0.001  0.000  0.000
    occupations:
  0.548  0.003  0.003  0.000  0.006
  0.003  0.258 -0.003  0.005  0.003
  0.003 -0.003  0.258 -0.005  0.003
  0.000  0.005 -0.005  0.548 -0.000
  0.006  0.003  0.003 -0.000  0.258
atomic mag. moment =     2.288966
N of occupied +U levels =   17.295334
 --- exit write_ns ---

     negative rho (up, down):  1.300E-03 0.000E+00
 --- in v_hubbard ---
Hubbard energy    0.8028
 -------

     total cpu time spent up to now is        7.7 secs

     total energy              =    -767.99535500 Ry
     Harris-Foulkes estimate   =    -768.02997807 Ry
     estimated scf accuracy    <       1.17307431 Ry

     total magnetization       =     2.68 Bohr mag/cell
     absolute magnetization    =     9.73 Bohr mag/cell

     iteration #  5     ecut=    30.00 Ry     beta= 0.30
     Davidson diagonalization with overlap
     ethr =  1.21E-03,  avg # of iterations =  2.5
 --- enter write_ns ---
 LDA+U parameters:
U( 2)     =  4.30000000
alpha( 2) =  0.00000000
U( 3)     =  4.30000000
alpha( 3) =  0.00000000
atom    2   Tr[ns(na)] (up, down, total) =   2.03404  4.04407  6.07811
   spin  1
    eigenvalues: 
  0.317  0.317  0.328  0.536  0.536
    eigenvectors:
  0.003  0.000  0.000  0.399  0.599
  0.228  0.437  0.333  0.000  0.002
  0.111  0.553  0.333  0.002  0.000
  0.000  0.003  0.000  0.599  0.399
  0.658  0.007  0.333  0.001  0.001
    occupations:
  0.536 -0.005 -0.005  0.000 -0.009
 -0.005  0.321  0.004 -0.008 -0.004
 -0.005  0.004  0.321  0.008 -0.004
  0.000 -0.008  0.008  0.536 -0.000
 -0.009 -0.004 -0.004 -0.000  0.321
   spin  2
    eigenvalues: 
  0.786  0.786  0.822  0.825  0.825
    eigenvectors:
  0.293  0.700  0.000  0.007  0.000
  0.001  0.004  0.333  0.123  0.539
  0.005  0.000  0.333  0.212  0.450
  0.700  0.293  0.000  0.000  0.007
  0.001  0.003  0.333  0.658  0.004
    occupations:
  0.786 -0.001 -0.001  0.000 -0.003
 -0.001  0.824 -0.001 -0.002  0.001
 -0.001 -0.001  0.824  0.002  0.001
  0.000 -0.002  0.002  0.786 -0.000
 -0.003  0.001  0.001 -0.000  0.824
atomic mag. moment =    -2.010029
atom    3   Tr[ns(na)] (up, down, total) =   4.11972  1.55824  5.67795
   spin  1
    eigenvalues: 
  0.807  0.807  0.835  0.835  0.836
    eigenvectors:
  0.243  0.756  0.001  0.000  0.000
  0.000  0.000  0.167  0.499  0.333
  0.001  0.000  0.166  0.500  0.333
  0.756  0.243  0.000  0.001  0.000
  0.000  0.000  0.666  0.000  0.333
    occupations:
  0.807 -0.000 -0.000  0.000 -0.001
 -0.000  0.835  0.000 -0.001 -0.000
 -0.000  0.000  0.835  0.001 -0.000
  0.000 -0.001  0.001  0.807 -0.000
 -0.001 -0.000 -0.000 -0.000  0.835
   spin  2
    eigenvalues: 
  0.171  0.171  0.179  0.519  0.519
    eigenvectors:
  0.000  0.000  0.000  0.303  0.697
  0.166  0.500  0.333  0.000  0.000
  0.167  0.500  0.333  0.000  0.000
  0.000  0.000  0.000  0.697  0.303
  0.666  0.000  0.333  0.000  0.000
    occupations:
  0.519  0.003  0.003  0.000  0.006
  0.003  0.173  0.003  0.005 -0.003
  0.003  0.003  0.173 -0.005 -0.003
  0.000  0.005 -0.005  0.519 -0.000
  0.006 -0.003 -0.003 -0.000  0.173
atomic mag. moment =     2.561479
atom    4   Tr[ns(na)] (up, down, total) =   4.11972  1.55824  5.67795
   spin  1
    eigenvalues: 
  0.807  0.807  0.835  0.835  0.836
    eigenvectors:
  0.238  0.762  0.001  0.000  0.000
  0.000  0.000  0.172  0.494  0.333
  0.001  0.000  0.161  0.505  0.333
  0.762  0.238  0.000  0.001  0.000
  0.000  0.000  0.666  0.000  0.333
    occupations:
  0.807 -0.000 -0.000  0.000 -0.001
 -0.000  0.835  0.000 -0.001 -0.000
 -0.000  0.000  0.835  0.001 -0.000
  0.000 -0.001  0.001  0.807 -0.000
 -0.001 -0.000 -0.000 -0.000  0.835
   spin  2
    eigenvalues: 
  0.171  0.171  0.179  0.519  0.519
    eigenvectors:
  0.000  0.000  0.000  0.280  0.720
  0.183  0.483  0.333  0.000  0.000
  0.151  0.516  0.333  0.000  0.000
  0.000  0.000  0.000  0.720  0.280
  0.666  0.001  0.333  0.000  0.000
    occupations:
  0.519  0.003  0.003  0.000  0.006
  0.003  0.173  0.003  0.005 -0.003
  0.003  0.003  0.173 -0.005 -0.003
  0.000  0.005 -0.005  0.519 -0.000
  0.006 -0.003 -0.003 -0.000  0.173
atomic mag. moment =     2.561479
N of occupied +U levels =   17.434016
 --- exit write_ns ---

     negative rho (up, down):  2.775E-03 9.600E-05
 --- in v_hubbard ---
Hubbard energy    0.8263
 -------

     total cpu time spent up to now is        8.9 secs

     total energy              =    -768.12724497 Ry
     Harris-Foulkes estimate   =    -768.07264118 Ry
     estimated scf accuracy    <       0.14755865 Ry

     total magnetization       =     4.00 Bohr mag/cell
     absolute magnetization    =     9.56 Bohr mag/cell

     iteration #  6     ecut=    30.00 Ry     beta= 0.30
     Davidson diagonalization with overlap
     ethr =  2.73E-04,  avg # of iterations =  2.7
 --- enter write_ns ---
 LDA+U parameters:
U( 2)     =  4.30000000
alpha( 2) =  0.00000000
U( 3)     =  4.30000000
alpha( 3) =  0.00000000
atom    2   Tr[ns(na)] (up, down, total) =   2.12846  3.95309  6.08155
   spin  1
    eigenvalues: 
  0.326  0.330  0.330  0.571  0.571
    eigenvectors:
  0.000  0.002  0.000  0.265  0.733
  0.333  0.256  0.409  0.000  0.001
  0.333  0.091  0.575  0.001  0.000
  0.000  0.000  0.002  0.733  0.265
  0.333  0.651  0.014  0.000  0.001
    occupations:
  0.571 -0.004 -0.004  0.000 -0.009
 -0.004  0.329 -0.002 -0.008  0.002
 -0.004 -0.002  0.329  0.008  0.002
  0.000 -0.008  0.008  0.571 -0.000
 -0.009  0.002  0.002 -0.000  0.329
   spin  2
    eigenvalues: 
  0.759  0.759  0.808  0.813  0.813
    eigenvectors:
  0.162  0.826  0.000  0.012  0.000
  0.003  0.005  0.333  0.112  0.546
  0.008  0.000  0.333  0.224  0.435
  0.826  0.162  0.000  0.000  0.012
  0.001  0.007  0.333  0.652  0.006
    occupations:
  0.760 -0.002 -0.002  0.000 -0.005
 -0.002  0.811 -0.002 -0.004  0.002
 -0.002 -0.002  0.811  0.004  0.002
  0.000 -0.004  0.004  0.760 -0.000
 -0.005  0.002  0.002 -0.000  0.811
atomic mag. moment =    -1.824627
atom    3   Tr[ns(na)] (up, down, total) =   4.08221  1.65070  5.73290
   spin  1
    eigenvalues: 
  0.795  0.795  0.830  0.830  0.832
    eigenvectors:
  0.256  0.741  0.002  0.000  0.000
  0.000  0.001  0.157  0.508  0.333
  0.002  0.000  0.175  0.490  0.333
  0.741  0.256  0.000  0.002  0.000
  0.000  0.001  0.665  0.000  0.333
    occupations:
  0.795 -0.001 -0.001  0.000 -0.001
 -0.001  0.831  0.001 -0.001 -0.001
 -0.001  0.001  0.831  0.001 -0.001
  0.000 -0.001  0.001  0.795 -0.000
 -0.001 -0.001 -0.001 -0.000  0.831
   spin  2
    eigenvalues: 
  0.163  0.163  0.196  0.565  0.565
    eigenvectors:
  0.000  0.000  0.000  0.198  0.801
  0.224  0.443  0.333  0.000  0.000
  0.116  0.551  0.333  0.000  0.000
  0.000  0.000  0.000  0.801  0.198
  0.661  0.006  0.333  0.000  0.000
    occupations:
  0.565 -0.002 -0.002  0.000 -0.004
 -0.002  0.174  0.011 -0.003 -0.011
 -0.002  0.011  0.174  0.003 -0.011
  0.000 -0.003  0.003  0.565 -0.000
 -0.004 -0.011 -0.011 -0.000  0.174
atomic mag. moment =     2.431509
atom    4   Tr[ns(na)] (up, down, total) =   4.08221  1.65070  5.73290
   spin  1
    eigenvalues: 
  0.795  0.795  0.830  0.830  0.832
    eigenvectors:
  0.235  0.763  0.002  0.000  0.000
  0.000  0.001  0.158  0.507  0.333
  0.002  0.000  0.175  0.490  0.333
  0.763  0.235  0.000  0.002  0.000
  0.000  0.001  0.665  0.000  0.333
    occupations:
  0.795 -0.001 -0.001  0.000 -0.001
 -0.001  0.831  0.001 -0.001 -0.001
 -0.001  0.001  0.831  0.001 -0.001
  0.000 -0.001  0.001  0.795 -0.000
 -0.001 -0.001 -0.001 -0.000  0.831
   spin  2
    eigenvalues: 
  0.163  0.163  0.196  0.565  0.565
    eigenvectors:
  0.000  0.000  0.000  0.198  0.802
  0.232  0.435  0.333  0.000  0.000
  0.109  0.558  0.333  0.000  0.000
  0.000  0.000  0.000  0.802  0.198
  0.659  0.008  0.333  0.000  0.000
    occupations:
  0.565 -0.002 -0.002  0.000 -0.004
 -0.002  0.174  0.011 -0.003 -0.011
 -0.002  0.011  0.174  0.003 -0.011
  0.000 -0.003  0.003  0.565 -0.000
 -0.004 -0.011 -0.011 -0.000  0.174
atomic mag. moment =     2.431509
N of occupied +U levels =   17.547351
 --- exit write_ns ---

     negative rho (up, down):  2.305E-03 4.800E-05
 --- in v_hubbard ---
Hubbard energy    0.8206
 -------

     total cpu time spent up to now is       10.4 secs

     total energy              =    -768.05875687 Ry
     Harris-Foulkes estimate   =    -768.18136872 Ry
     estimated scf accuracy    <       0.15428847 Ry

     total magnetization       =     3.82 Bohr mag/cell
     absolute magnetization    =     9.10 Bohr mag/cell

     iteration #  7     ecut=    30.00 Ry     beta= 0.30
     Davidson diagonalization with overlap
     ethr =  2.73E-04,  avg # of iterations =  2.2
 --- enter write_ns ---
 LDA+U parameters:
U( 2)     =  4.30000000
alpha( 2) =  0.00000000
U( 3)     =  4.30000000
alpha( 3) =  0.00000000
atom    2   Tr[ns(na)] (up, down, total) =   2.20716  3.97928  6.18644
   spin  1
    eigenvalues: 
  0.352  0.352  0.357  0.573  0.573
    eigenvectors:
  0.002  0.000  0.000  0.292  0.705
  0.248  0.417  0.333  0.000  0.001
  0.096  0.569  0.333  0.002  0.000
  0.000  0.002  0.000  0.705  0.292
  0.653  0.012  0.333  0.000  0.001
    occupations:
  0.573 -0.004 -0.004  0.000 -0.009
 -0.004  0.354  0.002 -0.008 -0.002
 -0.004  0.002  0.354  0.008 -0.002
  0.000 -0.008  0.008  0.573 -0.000
 -0.009 -0.002 -0.002 -0.000  0.354
   spin  2
    eigenvalues: 
  0.767  0.767  0.812  0.816  0.816
    eigenvectors:
  0.248  0.743  0.000  0.008  0.000
  0.001  0.004  0.333  0.131  0.530
  0.006  0.000  0.333  0.202  0.459
  0.743  0.248  0.000  0.000  0.008
  0.001  0.004  0.333  0.659  0.003
    occupations:
  0.768 -0.002 -0.002  0.000 -0.004
 -0.002  0.815 -0.001 -0.003  0.001
 -0.002 -0.001  0.815  0.003  0.001
  0.000 -0.003  0.003  0.768 -0.000
 -0.004  0.001  0.001 -0.000  0.815
atomic mag. moment =    -1.772125
atom    3   Tr[ns(na)] (up, down, total) =   4.07400  1.61641  5.69041
   spin  1
    eigenvalues: 
  0.792  0.792  0.830  0.830  0.832
    eigenvectors:
  0.247  0.753  0.001  0.000  0.000
  0.000  0.000  0.177  0.489  0.333
  0.001  0.000  0.156  0.510  0.333
  0.753  0.247  0.000  0.001  0.000
  0.000  0.000  0.666  0.000  0.333
    occupations:
  0.792 -0.000 -0.000  0.000 -0.001
 -0.000  0.830  0.001 -0.001 -0.001
 -0.000  0.001  0.830  0.001 -0.001
  0.000 -0.001  0.001  0.792 -0.000
 -0.001 -0.001 -0.001 -0.000  0.830
   spin  2
    eigenvalues: 
  0.165  0.165  0.178  0.554  0.554
    eigenvectors:
  0.001  0.000  0.000  0.234  0.765
  0.175  0.491  0.333  0.000  0.000
  0.158  0.508  0.333  0.000  0.000
  0.000  0.001  0.000  0.765  0.234
  0.666  0.000  0.333  0.000  0.000
    occupations:
  0.554  0.004  0.004  0.000  0.008
  0.004  0.169  0.004  0.007 -0.004
  0.004  0.004  0.169 -0.007 -0.004
  0.000  0.007 -0.007  0.554 -0.000
  0.008 -0.004 -0.004 -0.000  0.169
atomic mag. moment =     2.457599
atom    4   Tr[ns(na)] (up, down, total) =   4.07400  1.61641  5.69041
   spin  1
    eigenvalues: 
  0.792  0.792  0.830  0.830  0.832
    eigenvectors:
  0.234  0.765  0.001  0.000  0.000
  0.000  0.000  0.182  0.484  0.333
  0.001  0.000  0.151  0.515  0.333
  0.765  0.234  0.000  0.001  0.000
  0.000  0.000  0.666  0.000  0.333
    occupations:
  0.792 -0.000 -0.000  0.000 -0.001
 -0.000  0.830  0.001 -0.001 -0.001
 -0.000  0.001  0.830  0.001 -0.001
  0.000 -0.001  0.001  0.792 -0.000
 -0.001 -0.001 -0.001 -0.000  0.830
   spin  2
    eigenvalues: 
  0.165  0.165  0.178  0.554  0.554
    eigenvectors:
  0.001  0.000  0.000  0.255  0.744
  0.157  0.509  0.333  0.000  0.000
  0.176  0.490  0.333  0.000  0.000
  0.000  0.001  0.000  0.744  0.255
  0.666  0.000  0.333  0.000  0.000
    occupations:
  0.554  0.004  0.004  0.000  0.008
  0.004  0.169  0.004  0.007 -0.004
  0.004  0.004  0.169 -0.007 -0.004
  0.000  0.007 -0.007  0.554 -0.000
  0.008 -0.004 -0.004 -0.000  0.169
atomic mag. moment =     2.457599
N of occupied +U levels =   17.567262
 --- exit write_ns ---

     negative rho (up, down):  2.321E-03 9.600E-05
 --- in v_hubbard ---
Hubbard energy    0.8232
 -------

     total cpu time spent up to now is       11.9 secs

     total energy              =    -767.89224856 Ry
     Harris-Foulkes estimate   =    -768.08429054 Ry
     estimated scf accuracy    <       0.11619106 Ry

     total magnetization       =     3.96 Bohr mag/cell
     absolute magnetization    =     8.91 Bohr mag/cell

     iteration #  8     ecut=    30.00 Ry     beta= 0.30
     Davidson diagonalization with overlap
     ethr =  2.15E-04,  avg # of iterations =  2.7
 --- enter write_ns ---
 LDA+U parameters:
U( 2)     =  4.30000000
alpha( 2) =  0.00000000
U( 3)     =  4.30000000
alpha( 3) =  0.00000000
atom    2   Tr[ns(na)] (up, down, total) =   2.01814  3.95692  5.97506
   spin  1
    eigenvalues: 
  0.301  0.301  0.314  0.552  0.552
    eigenvectors:
  0.000  0.000  0.000  0.341  0.658
  0.216  0.450  0.333  0.000  0.000
  0.122  0.545  0.333  0.000  0.000
  0.000  0.000  0.000  0.658  0.341
  0.662  0.005  0.333  0.000  0.000
    occupations:
  0.551 -0.002 -0.002  0.000 -0.004
 -0.002  0.305  0.004 -0.003 -0.004
 -0.002  0.004  0.305  0.003 -0.004
  0.000 -0.003  0.003  0.551 -0.000
 -0.004 -0.004 -0.004 -0.000  0.305
   spin  2
    eigenvalues: 
  0.763  0.763  0.807  0.812  0.812
    eigenvectors:
  0.277  0.717  0.000  0.006  0.000
  0.001  0.003  0.333  0.131  0.531
  0.004  0.000  0.333  0.203  0.460
  0.717  0.277  0.000  0.000  0.006
  0.001  0.003  0.333  0.660  0.003
    occupations:
  0.763 -0.002 -0.002  0.000 -0.003
 -0.002  0.810 -0.001 -0.003  0.001
 -0.002 -0.001  0.810  0.003  0.001
  0.000 -0.003  0.003  0.763 -0.000
 -0.003  0.001  0.001 -0.000  0.810
atomic mag. moment =    -1.938779
atom    3   Tr[ns(na)] (up, down, total) =   4.07700  1.73024  5.80724
   spin  1
    eigenvalues: 
  0.792  0.792  0.830  0.830  0.832
    eigenvectors:
  0.312  0.688  0.000  0.000  0.000
  0.000  0.000  0.181  0.485  0.333
  0.000  0.000  0.152  0.514  0.333
  0.688  0.312  0.000  0.000  0.000
  0.000  0.000  0.666  0.000  0.333
    occupations:
  0.792 -0.000 -0.000  0.000 -0.000
 -0.000  0.831  0.001 -0.000 -0.001
 -0.000  0.001  0.831  0.000 -0.001
  0.000 -0.000  0.000  0.792 -0.000
 -0.000 -0.001 -0.001 -0.000  0.831
   spin  2
    eigenvalues: 
  0.193  0.193  0.199  0.573  0.573
    eigenvectors:
  0.003  0.000  0.000  0.179  0.819
  0.159  0.506  0.333  0.001  0.001
  0.173  0.492  0.333  0.002  0.000
  0.000  0.003  0.000  0.819  0.179
  0.665  0.000  0.333  0.000  0.001
    occupations:
  0.572  0.008  0.008  0.000  0.016
  0.008  0.195  0.002  0.014 -0.002
  0.008  0.002  0.195 -0.014 -0.002
  0.000  0.014 -0.014  0.572 -0.000
  0.016 -0.002 -0.002 -0.000  0.195
atomic mag. moment =     2.346758
atom    4   Tr[ns(na)] (up, down, total) =   4.07700  1.73024  5.80724
   spin  1
    eigenvalues: 
  0.792  0.792  0.830  0.830  0.832
    eigenvectors:
  0.221  0.779  0.000  0.000  0.000
  0.000  0.000  0.177  0.490  0.333
  0.000  0.000  0.157  0.510  0.333
  0.779  0.221  0.000  0.000  0.000
  0.000  0.000  0.666  0.000  0.333
    occupations:
  0.792 -0.000 -0.000  0.000 -0.000
 -0.000  0.831  0.001 -0.000 -0.001
 -0.000  0.001  0.831  0.000 -0.001
  0.000 -0.000  0.000  0.792 -0.000
 -0.000 -0.001 -0.001 -0.000  0.831
   spin  2
    eigenvalues: 
  0.193  0.193  0.199  0.573  0.573
    eigenvectors:
  0.003  0.000  0.000  0.201  0.797
  0.157  0.508  0.333  0.001  0.001
  0.176  0.489  0.333  0.002  0.000
  0.000  0.003  0.000  0.797  0.201
  0.665  0.000  0.333  0.000  0.001
    occupations:
  0.572  0.008  0.008  0.000  0.016
  0.008  0.195  0.002  0.014 -0.002
  0.008  0.002  0.195 -0.014 -0.002
  0.000  0.014 -0.014  0.572 -0.000
  0.016 -0.002 -0.002 -0.000  0.195
atomic mag. moment =     2.346758
N of occupied +U levels =   17.589534
 --- exit write_ns ---

     negative rho (up, down):  2.168E-03 4.800E-05
 --- in v_hubbard ---
Hubbard energy    0.8284
 -------

     total cpu time spent up to now is       14.2 secs

     total energy              =    -767.91476582 Ry
     Harris-Foulkes estimate   =    -767.94965403 Ry
     estimated scf accuracy    <       0.05124845 Ry

     total magnetization       =     3.59 Bohr mag/cell
     absolute magnetization    =     8.67 Bohr mag/cell

     iteration #  9     ecut=    30.00 Ry     beta= 0.30
     Davidson diagonalization with overlap
     ethr =  9.49E-05,  avg # of iterations =  2.2
 --- enter write_ns ---
 LDA+U parameters:
U( 2)     =  4.30000000
alpha( 2) =  0.00000000
U( 3)     =  4.30000000
alpha( 3) =  0.00000000
atom    2   Tr[ns(na)] (up, down, total) =   2.09569  3.96839  6.06408
   spin  1
    eigenvalues: 
  0.319  0.319  0.338  0.560  0.560
    eigenvectors:
  0.000  0.000  0.000  0.217  0.783
  0.213  0.454  0.333  0.000  0.000
  0.124  0.542  0.333  0.000  0.000
  0.000  0.000  0.000  0.783  0.217
  0.663  0.004  0.333  0.000  0.000
    occupations:
  0.560 -0.002 -0.002  0.000 -0.004
 -0.002  0.325  0.006 -0.003 -0.006
 -0.002  0.006  0.325  0.003 -0.006
  0.000 -0.003  0.003  0.560 -0.000
 -0.004 -0.006 -0.006 -0.000  0.325
   spin  2
    eigenvalues: 
  0.766  0.766  0.809  0.814  0.814
    eigenvectors:
  0.301  0.695  0.000  0.004  0.000
  0.001  0.002  0.333  0.149  0.515
  0.003  0.000  0.333  0.184  0.480
  0.695  0.301  0.000  0.000  0.004
  0.001  0.002  0.333  0.663  0.001
    occupations:
  0.766 -0.001 -0.001  0.000 -0.003
 -0.001  0.812 -0.001 -0.002  0.001
 -0.001 -0.001  0.812  0.002  0.001
  0.000 -0.002  0.002  0.766 -0.000
 -0.003  0.001  0.001 -0.000  0.812
atomic mag. moment =    -1.872701
atom    3   Tr[ns(na)] (up, down, total) =   4.06568  1.71709  5.78277
   spin  1
    eigenvalues: 
  0.788  0.788  0.829  0.829  0.832
    eigenvectors:
  0.288  0.712  0.001  0.000  0.000
  0.000  0.000  0.212  0.454  0.333
  0.000  0.000  0.125  0.542  0.333
  0.712  0.288  0.000  0.001  0.000
  0.000  0.000  0.662  0.004  0.333
    occupations:
  0.788  0.000  0.000  0.000  0.001
  0.000  0.830  0.001  0.001 -0.001
  0.000  0.001  0.830 -0.001 -0.001
  0.000  0.001 -0.001  0.788 -0.000
  0.001 -0.001 -0.001 -0.000  0.830
   spin  2
    eigenvalues: 
  0.187  0.187  0.194  0.575  0.575
    eigenvectors:
  0.005  0.000  0.000  0.100  0.896
  0.132  0.531  0.333  0.001  0.002
  0.202  0.462  0.333  0.003  0.000
  0.000  0.005  0.000  0.896  0.100
  0.661  0.002  0.333  0.000  0.003
    occupations:
  0.573  0.011  0.011  0.000  0.022
  0.011  0.190  0.002  0.019 -0.002
  0.011  0.002  0.190 -0.019 -0.002
  0.000  0.019 -0.019  0.573 -0.000
  0.022 -0.002 -0.002 -0.000  0.190
atomic mag. moment =     2.348596
atom    4   Tr[ns(na)] (up, down, total) =   4.06568  1.71709  5.78277
   spin  1
    eigenvalues: 
  0.788  0.788  0.829  0.829  0.832
    eigenvectors:
  0.272  0.727  0.001  0.000  0.000
  0.000  0.000  0.211  0.456  0.333
  0.000  0.000  0.126  0.540  0.333
  0.727  0.272  0.000  0.001  0.000
  0.000  0.000  0.663  0.004  0.333
    occupations:
  0.788  0.000  0.000  0.000  0.001
  0.000  0.830  0.001  0.001 -0.001
  0.000  0.001  0.830 -0.001 -0.001
  0.000  0.001 -0.001  0.788 -0.000
  0.001 -0.001 -0.001 -0.000  0.830
   spin  2
    eigenvalues: 
  0.187  0.187  0.194  0.575  0.575
    eigenvectors:
  0.005  0.000  0.000  0.104  0.891
  0.146  0.518  0.333  0.001  0.002
  0.187  0.477  0.333  0.003  0.000
  0.000  0.005  0.000  0.891  0.104
  0.663  0.001  0.333  0.000  0.003
    occupations:
  0.573  0.011  0.011  0.000  0.022
  0.011  0.190  0.002  0.019 -0.002
  0.011  0.002  0.190 -0.019 -0.002
  0.000  0.019 -0.019  0.573 -0.000
  0.022 -0.002 -0.002 -0.000  0.190
atomic mag. moment =     2.348596
N of occupied +U levels =   17.629623
 --- exit write_ns ---

     negative rho (up, down):  2.392E-03 4.800E-05
 --- in v_hubbard ---
Hubbard energy    0.8371
 -------

     total cpu time spent up to now is       16.3 secs

     total energy              =    -767.93733987 Ry
     Harris-Foulkes estimate   =    -767.93329103 Ry
     estimated scf accuracy    <       0.02727246 Ry

     total magnetization       =     3.69 Bohr mag/cell
     absolute magnetization    =     8.60 Bohr mag/cell

     iteration # 10     ecut=    30.00 Ry     beta= 0.30
     Davidson diagonalization with overlap
     ethr =  5.05E-05,  avg # of iterations =  3.1
 --- enter write_ns ---
 LDA+U parameters:
U( 2)     =  4.30000000
alpha( 2) =  0.00000000
U( 3)     =  4.30000000
alpha( 3) =  0.00000000
atom    2   Tr[ns(na)] (up, down, total) =   1.96994  3.91990  5.88983
   spin  1
    eigenvalues: 
  0.281  0.281  0.302  0.553  0.553
    eigenvectors:
  0.000  0.000  0.000  0.261  0.739
  0.216  0.451  0.333  0.000  0.000
  0.122  0.545  0.333  0.000  0.000
  0.000  0.000  0.000  0.739  0.261
  0.662  0.004  0.333  0.000  0.000
    occupations:
  0.553 -0.001 -0.001  0.000 -0.001
 -0.001  0.288  0.007 -0.001 -0.007
 -0.001  0.007  0.288  0.001 -0.007
  0.000 -0.001  0.001  0.553 -0.000
 -0.001 -0.007 -0.007 -0.000  0.288
   spin  2
    eigenvalues: 
  0.752  0.752  0.802  0.807  0.807
    eigenvectors:
  0.277  0.720  0.000  0.003  0.000
  0.000  0.002  0.333  0.172  0.493
  0.002  0.000  0.333  0.161  0.504
  0.720  0.277  0.000  0.000  0.003
  0.001  0.002  0.333  0.665  0.000
    occupations:
  0.753 -0.001 -0.001  0.000 -0.002
 -0.001  0.805 -0.002 -0.002  0.002
 -0.001 -0.002  0.805  0.002  0.002
  0.000 -0.002  0.002  0.753 -0.000
 -0.002  0.002  0.002 -0.000  0.805
atomic mag. moment =    -1.949957
atom    3   Tr[ns(na)] (up, down, total) =   4.06000  1.80731  5.86730
   spin  1
    eigenvalues: 
  0.785  0.785  0.829  0.829  0.831
    eigenvectors:
  0.347  0.652  0.001  0.000  0.000
  0.000  0.001  0.204  0.461  0.333
  0.001  0.000  0.131  0.534  0.333
  0.652  0.347  0.000  0.001  0.000
  0.000  0.001  0.663  0.003  0.333
    occupations:
  0.785  0.001  0.001  0.000  0.001
  0.001  0.830  0.001  0.001 -0.001
  0.001  0.001  0.830 -0.001 -0.001
  0.000  0.001 -0.001  0.785 -0.000
  0.001 -0.001 -0.001 -0.000  0.830
   spin  2
    eigenvalues: 
  0.196  0.196  0.212  0.602  0.602
    eigenvectors:
  0.006  0.000  0.000  0.251  0.743
  0.122  0.541  0.333  0.001  0.003
  0.213  0.449  0.333  0.004  0.000
  0.000  0.006  0.000  0.743  0.251
  0.659  0.004  0.333  0.001  0.003
    occupations:
  0.600  0.013  0.013  0.000  0.025
  0.013  0.203  0.005  0.022 -0.005
  0.013  0.005  0.203 -0.022 -0.005
  0.000  0.022 -0.022  0.600 -0.000
  0.025 -0.005 -0.005 -0.000  0.203
atomic mag. moment =     2.252689
atom    4   Tr[ns(na)] (up, down, total) =   4.06000  1.80731  5.86730
   spin  1
    eigenvalues: 
  0.785  0.785  0.829  0.829  0.831
    eigenvectors:
  0.319  0.680  0.001  0.000  0.000
  0.000  0.001  0.224  0.442  0.333
  0.001  0.000  0.115  0.551  0.333
  0.680  0.319  0.000  0.001  0.000
  0.000  0.001  0.660  0.006  0.333
    occupations:
  0.785  0.001  0.001  0.000  0.001
  0.001  0.830  0.001  0.001 -0.001
  0.001  0.001  0.830 -0.001 -0.001
  0.000  0.001 -0.001  0.785 -0.000
  0.001 -0.001 -0.001 -0.000  0.830
   spin  2
    eigenvalues: 
  0.196  0.196  0.212  0.602  0.602
    eigenvectors:
  0.006  0.000  0.000  0.252  0.742
  0.128  0.535  0.333  0.001  0.003
  0.206  0.456  0.333  0.004  0.000
  0.000  0.006  0.000  0.742  0.252
  0.660  0.003  0.333  0.001  0.003
    occupations:
  0.600  0.013  0.013  0.000  0.025
  0.013  0.203  0.005  0.022 -0.005
  0.013  0.005  0.203 -0.022 -0.005
  0.000  0.022 -0.022  0.600 -0.000
  0.025 -0.005 -0.005 -0.000  0.203
atomic mag. moment =     2.252689
N of occupied +U levels =   17.624442
 --- exit write_ns ---

     negative rho (up, down):  6.669E-03 0.000E+00
 --- in v_hubbard ---
Hubbard energy    0.8412
 -------

     total cpu time spent up to now is       18.6 secs

     total energy              =    -768.05741288 Ry
     Harris-Foulkes estimate   =    -767.95529417 Ry
     estimated scf accuracy    <       0.08027197 Ry

     total magnetization       =     3.42 Bohr mag/cell
     absolute magnetization    =     8.45 Bohr mag/cell

     iteration # 11     ecut=    30.00 Ry     beta= 0.30
     Davidson diagonalization with overlap
     ethr =  5.05E-05,  avg # of iterations =  3.8
 --- enter write_ns ---
 LDA+U parameters:
U( 2)     =  4.30000000
alpha( 2) =  0.00000000
U( 3)     =  4.30000000
alpha( 3) =  0.00000000
atom    2   Tr[ns(na)] (up, down, total) =   2.24057  3.93231  6.17288
   spin  1
    eigenvalues: 
  0.349  0.349  0.370  0.587  0.587
    eigenvectors:
  0.001  0.000  0.000  0.288  0.711
  0.238  0.428  0.333  0.000  0.001
  0.104  0.562  0.333  0.001  0.000
  0.000  0.001  0.000  0.711  0.288
  0.657  0.009  0.333  0.000  0.001
    occupations:
  0.586 -0.004 -0.004  0.000 -0.007
 -0.004  0.356  0.007 -0.006 -0.007
 -0.004  0.007  0.356  0.006 -0.007
  0.000 -0.006  0.006  0.586 -0.000
 -0.007 -0.007 -0.007 -0.000  0.356
   spin  2
    eigenvalues: 
  0.752  0.752  0.807  0.811  0.811
    eigenvectors:
  0.148  0.846  0.000  0.006  0.000
  0.001  0.002  0.333  0.136  0.527
  0.004  0.000  0.333  0.197  0.465
  0.846  0.148  0.000  0.000  0.006
  0.001  0.003  0.333  0.661  0.002
    occupations:
  0.752 -0.002 -0.002  0.000 -0.004
 -0.002  0.809 -0.001 -0.003  0.001
 -0.002 -0.001  0.809  0.003  0.001
  0.000 -0.003  0.003  0.752 -0.000
 -0.004  0.001  0.001 -0.000  0.809
atomic mag. moment =    -1.691733
atom    3   Tr[ns(na)] (up, down, total) =   4.05274  1.71281  5.76555
   spin  1
    eigenvalues: 
  0.782  0.782  0.829  0.829  0.831
    eigenvectors:
  0.331  0.669  0.000  0.000  0.000
  0.000  0.000  0.201  0.465  0.333
  0.000  0.000  0.134  0.532  0.333
  0.669  0.331  0.000  0.000  0.000
  0.000  0.000  0.664  0.002  0.333
    occupations:
  0.782  0.000  0.000  0.000  0.001
  0.000  0.829  0.001  0.001 -0.001
  0.000  0.001  0.829 -0.001 -0.001
  0.000  0.001 -0.001  0.782 -0.000
  0.001 -0.001 -0.001 -0.000  0.829
   spin  2
    eigenvalues: 
  0.164  0.164  0.182  0.602  0.602
    eigenvectors:
  0.003  0.000  0.000  0.201  0.796
  0.149  0.516  0.333  0.001  0.001
  0.184  0.481  0.333  0.002  0.000
  0.000  0.003  0.000  0.796  0.201
  0.664  0.001  0.333  0.000  0.001
    occupations:
  0.600  0.009  0.009  0.000  0.019
  0.009  0.171  0.006  0.016 -0.006
  0.009  0.006  0.171 -0.016 -0.006
  0.000  0.016 -0.016  0.600 -0.000
  0.019 -0.006 -0.006 -0.000  0.171
atomic mag. moment =     2.339930
atom    4   Tr[ns(na)] (up, down, total) =   4.05274  1.71281  5.76555
   spin  1
    eigenvalues: 
  0.782  0.782  0.829  0.829  0.831
    eigenvectors:
  0.279  0.721  0.000  0.000  0.000
  0.000  0.000  0.208  0.458  0.333
  0.000  0.000  0.128  0.538  0.333
  0.721  0.279  0.000  0.000  0.000
  0.000  0.000  0.663  0.003  0.333
    occupations:
  0.782  0.000  0.000  0.000  0.001
  0.000  0.829  0.001  0.001 -0.001
  0.000  0.001  0.829 -0.001 -0.001
  0.000  0.001 -0.001  0.782 -0.000
  0.001 -0.001 -0.001 -0.000  0.829
   spin  2
    eigenvalues: 
  0.164  0.164  0.182  0.602  0.602
    eigenvectors:
  0.003  0.000  0.000  0.247  0.751
  0.182  0.483  0.333  0.000  0.001
  0.151  0.514  0.333  0.002  0.000
  0.000  0.003  0.000  0.751  0.247
  0.664  0.000  0.333  0.000  0.001
    occupations:
  0.600  0.009  0.009  0.000  0.019
  0.009  0.171  0.006  0.016 -0.006
  0.009  0.006  0.171 -0.016 -0.006
  0.000  0.016 -0.016  0.600 -0.000
  0.019 -0.006 -0.006 -0.000  0.171
atomic mag. moment =     2.339930
N of occupied +U levels =   17.703980
 --- exit write_ns ---

     negative rho (up, down):  9.225E-03 0.000E+00
 --- in v_hubbard ---
Hubbard energy    0.8481
 -------

     total cpu time spent up to now is       21.1 secs

     total energy              =    -768.10561894 Ry
     Harris-Foulkes estimate   =    -768.12562410 Ry
     estimated scf accuracy    <       0.01944990 Ry

     total magnetization       =     3.86 Bohr mag/cell
     absolute magnetization    =     8.29 Bohr mag/cell

     iteration # 12     ecut=    30.00 Ry     beta= 0.30
     Davidson diagonalization with overlap
     ethr =  3.60E-05,  avg # of iterations =  2.7
 --- enter write_ns ---
 LDA+U parameters:
U( 2)     =  4.30000000
alpha( 2) =  0.00000000
U( 3)     =  4.30000000
alpha( 3) =  0.00000000
atom    2   Tr[ns(na)] (up, down, total) =   2.27302  3.89270  6.16572
   spin  1
    eigenvalues: 
  0.352  0.352  0.377  0.597  0.597
    eigenvectors:
  0.001  0.000  0.000  0.318  0.681
  0.235  0.431  0.333  0.000  0.001
  0.106  0.560  0.333  0.001  0.000
  0.000  0.001  0.000  0.681  0.318
  0.657  0.008  0.333  0.000  0.001
    occupations:
  0.596 -0.004 -0.004  0.000 -0.007
 -0.004  0.360  0.008 -0.006 -0.008
 -0.004  0.008  0.360  0.006 -0.008
  0.000 -0.006  0.006  0.596 -0.000
 -0.007 -0.008 -0.008 -0.000  0.360
   spin  2
    eigenvalues: 
  0.738  0.738  0.803  0.807  0.807
    eigenvectors:
  0.147  0.847  0.000  0.006  0.000
  0.001  0.003  0.333  0.128  0.534
  0.004  0.000  0.333  0.206  0.457
  0.847  0.147  0.000  0.000  0.006
  0.001  0.003  0.333  0.660  0.003
    occupations:
  0.738 -0.002 -0.002  0.000 -0.004
 -0.002  0.805 -0.001 -0.004  0.001
 -0.002 -0.001  0.805  0.004  0.001
  0.000 -0.004  0.004  0.738 -0.000
 -0.004  0.001  0.001 -0.000  0.805
atomic mag. moment =    -1.619683
atom    3   Tr[ns(na)] (up, down, total) =   4.03954  1.74024  5.77978
   spin  1
    eigenvalues: 
  0.777  0.777  0.828  0.828  0.830
    eigenvectors:
  0.250  0.749  0.001  0.000  0.000
  0.000  0.001  0.235  0.431  0.333
  0.001  0.000  0.107  0.559  0.333
  0.749  0.250  0.000  0.001  0.000
  0.000  0.001  0.658  0.008  0.333
    occupations:
  0.777  0.001  0.001  0.000  0.001
  0.001  0.829  0.000  0.001 -0.000
  0.001  0.000  0.829 -0.001 -0.000
  0.000  0.001 -0.001  0.777 -0.000
  0.001 -0.000 -0.000 -0.000  0.829
   spin  2
    eigenvalues: 
  0.156  0.156  0.181  0.624  0.624
    eigenvectors:
  0.003  0.000  0.000  0.259  0.738
  0.167  0.498  0.333  0.000  0.001
  0.166  0.499  0.333  0.002  0.000
  0.000  0.003  0.000  0.738  0.259
  0.665  0.000  0.333  0.001  0.001
    occupations:
  0.622  0.010  0.010  0.000  0.021
  0.010  0.165  0.008  0.018 -0.008
  0.010  0.008  0.165 -0.018 -0.008
  0.000  0.018 -0.018  0.622 -0.000
  0.021 -0.008 -0.008 -0.000  0.165
atomic mag. moment =     2.299297
atom    4   Tr[ns(na)] (up, down, total) =   4.03954  1.74024  5.77978
   spin  1
    eigenvalues: 
  0.777  0.777  0.828  0.828  0.830
    eigenvectors:
  0.379  0.620  0.001  0.000  0.000
  0.000  0.001  0.202  0.464  0.333
  0.001  0.000  0.133  0.533  0.333
  0.620  0.379  0.000  0.001  0.000
  0.000  0.000  0.664  0.002  0.333
    occupations:
  0.777  0.001  0.001  0.000  0.001
  0.001  0.829  0.000  0.001 -0.000
  0.001  0.000  0.829 -0.001 -0.000
  0.000  0.001 -0.001  0.777 -0.000
  0.001 -0.000 -0.000 -0.000  0.829
   spin  2
    eigenvalues: 
  0.156  0.156  0.181  0.624  0.624
    eigenvectors:
  0.003  0.000  0.000  0.215  0.782
  0.142  0.522  0.333  0.001  0.001
  0.191  0.474  0.333  0.002  0.000
  0.000  0.003  0.000  0.782  0.215
  0.664  0.001  0.333  0.000  0.002
    occupations:
  0.622  0.010  0.010  0.000  0.021
  0.010  0.165  0.008  0.018 -0.008
  0.010  0.008  0.165 -0.018 -0.008
  0.000  0.018 -0.018  0.622 -0.000
  0.021 -0.008 -0.008 -0.000  0.165
atomic mag. moment =     2.299297
N of occupied +U levels =   17.725268
 --- exit write_ns ---

     negative rho (up, down):  6.064E-03 0.000E+00
 --- in v_hubbard ---
Hubbard energy    0.8484
 -------

     total cpu time spent up to now is       23.0 secs

     total energy              =    -768.01110808 Ry
     Harris-Foulkes estimate   =    -768.11197092 Ry
     estimated scf accuracy    <       0.00535775 Ry

     total magnetization       =     3.86 Bohr mag/cell
     absolute magnetization    =     8.05 Bohr mag/cell

     iteration # 13     ecut=    30.00 Ry     beta= 0.30
     Davidson diagonalization with overlap
     ethr =  9.92E-06,  avg # of iterations =  4.1
 --- enter write_ns ---
 LDA+U parameters:
U( 2)     =  4.30000000
alpha( 2) =  0.00000000
U( 3)     =  4.30000000
alpha( 3) =  0.00000000
atom    2   Tr[ns(na)] (up, down, total) =   2.27652  3.87118  6.14771
   spin  1
    eigenvalues: 
  0.352  0.352  0.382  0.595  0.595
    eigenvectors:
  0.001  0.000  0.000  0.317  0.683
  0.223  0.443  0.333  0.000  0.000
  0.116  0.550  0.333  0.001  0.000
  0.000  0.001  0.000  0.683  0.317
  0.660  0.006  0.333  0.000  0.000
    occupations:
  0.595 -0.003 -0.003  0.000 -0.006
 -0.003  0.362  0.010 -0.005 -0.010
 -0.003  0.010  0.362  0.005 -0.010
  0.000 -0.005  0.005  0.595 -0.000
 -0.006 -0.010 -0.010 -0.000  0.362
   spin  2
    eigenvalues: 
  0.732  0.732  0.800  0.804  0.804
    eigenvectors:
  0.223  0.773  0.000  0.004  0.000
  0.001  0.002  0.333  0.150  0.514
  0.003  0.000  0.333  0.182  0.482
  0.773  0.223  0.000  0.000  0.004
  0.001  0.002  0.333  0.663  0.001
    occupations:
  0.732 -0.002 -0.002  0.000 -0.004
 -0.002  0.802 -0.001 -0.003  0.001
 -0.002 -0.001  0.802  0.003  0.001
  0.000 -0.003  0.003  0.732 -0.000
 -0.004  0.001  0.001 -0.000  0.802
atomic mag. moment =    -1.594662
atom    3   Tr[ns(na)] (up, down, total) =   4.02625  1.75185  5.77810
   spin  1
    eigenvalues: 
  0.771  0.771  0.827  0.827  0.829
    eigenvectors:
  0.274  0.724  0.003  0.000  0.000
  0.000  0.001  0.230  0.435  0.333
  0.002  0.000  0.110  0.555  0.333
  0.724  0.274  0.000  0.003  0.000
  0.000  0.001  0.658  0.007  0.333
    occupations:
  0.771  0.001  0.001  0.000  0.002
  0.001  0.828  0.001  0.002 -0.001
  0.001  0.001  0.828 -0.002 -0.001
  0.000  0.002 -0.002  0.771 -0.000
  0.002 -0.001 -0.001 -0.000  0.828
   spin  2
    eigenvalues: 
  0.154  0.154  0.175  0.634  0.634
    eigenvectors:
  0.005  0.000  0.000  0.213  0.781
  0.140  0.523  0.333  0.001  0.002
  0.192  0.471  0.333  0.003  0.000
  0.000  0.005  0.000  0.781  0.213
  0.662  0.001  0.333  0.001  0.003
    occupations:
  0.632  0.014  0.014  0.000  0.028
  0.014  0.163  0.006  0.025 -0.006
  0.014  0.006  0.163 -0.025 -0.006
  0.000  0.025 -0.025  0.632 -0.000
  0.028 -0.006 -0.006 -0.000  0.163
atomic mag. moment =     2.274406
atom    4   Tr[ns(na)] (up, down, total) =   4.02625  1.75185  5.77810
   spin  1
    eigenvalues: 
  0.771  0.771  0.827  0.827  0.829
    eigenvectors:
  0.332  0.665  0.003  0.000  0.000
  0.000  0.001  0.233  0.432  0.333
  0.002  0.000  0.107  0.558  0.333
  0.665  0.332  0.000  0.003  0.000
  0.001  0.001  0.657  0.008  0.333
    occupations:
  0.771  0.001  0.001  0.000  0.002
  0.001  0.828  0.001  0.002 -0.001
  0.001  0.001  0.828 -0.002 -0.001
  0.000  0.002 -0.002  0.771 -0.000
  0.002 -0.001 -0.001 -0.000  0.828
   spin  2
    eigenvalues: 
  0.154  0.154  0.175  0.634  0.634
    eigenvectors:
  0.005  0.000  0.000  0.208  0.786
  0.148  0.515  0.333  0.001  0.002
  0.184  0.479  0.333  0.003  0.000
  0.000  0.005  0.000  0.786  0.208
  0.663  0.001  0.333  0.001  0.003
    occupations:
  0.632  0.014  0.014  0.000  0.028
  0.014  0.163  0.006  0.025 -0.006
  0.014  0.006  0.163 -0.025 -0.006
  0.000  0.025 -0.025  0.632 -0.000
  0.028 -0.006 -0.006 -0.000  0.163
atomic mag. moment =     2.274406
N of occupied +U levels =   17.703905
 --- exit write_ns ---

     negative rho (up, down):  8.315E-03 0.000E+00
 --- in v_hubbard ---
Hubbard energy    0.8460
 -------

     total cpu time spent up to now is       25.8 secs

     total energy              =    -768.11169992 Ry
     Harris-Foulkes estimate   =    -768.03653083 Ry
     estimated scf accuracy    <       0.00996630 Ry

     total magnetization       =     3.88 Bohr mag/cell
     absolute magnetization    =     7.98 Bohr mag/cell

     iteration # 14     ecut=    30.00 Ry     beta= 0.30
     Davidson diagonalization with overlap
     ethr =  9.92E-06,  avg # of iterations =  2.5
 --- enter write_ns ---
 LDA+U parameters:
U( 2)     =  4.30000000
alpha( 2) =  0.00000000
U( 3)     =  4.30000000
alpha( 3) =  0.00000000
atom    2   Tr[ns(na)] (up, down, total) =   2.29922  3.86457  6.16379
   spin  1
    eigenvalues: 
  0.358  0.358  0.390  0.596  0.596
    eigenvectors:
  0.001  0.000  0.000  0.215  0.784
  0.223  0.443  0.333  0.000  0.000
  0.116  0.550  0.333  0.001  0.000
  0.000  0.001  0.000  0.784  0.215
  0.660  0.006  0.333  0.000  0.000
    occupations:
  0.596 -0.003 -0.003  0.000 -0.006
 -0.003  0.369  0.010 -0.005 -0.010
 -0.003  0.010  0.369  0.005 -0.010
  0.000 -0.005  0.005  0.596 -0.000
 -0.006 -0.010 -0.010 -0.000  0.369
   spin  2
    eigenvalues: 
  0.729  0.729  0.799  0.804  0.804
    eigenvectors:
  0.262  0.733  0.000  0.005  0.000
  0.001  0.002  0.333  0.131  0.532
  0.003  0.000  0.333  0.203  0.460
  0.733  0.262  0.000  0.000  0.005
  0.001  0.002  0.333  0.661  0.003
    occupations:
  0.729 -0.002 -0.002  0.000 -0.004
 -0.002  0.802 -0.001 -0.004  0.001
 -0.002 -0.001  0.802  0.004  0.001
  0.000 -0.004  0.004  0.729 -0.000
 -0.004  0.001  0.001 -0.000  0.802
atomic mag. moment =    -1.565342
atom    3   Tr[ns(na)] (up, down, total) =   4.02717  1.74554  5.77271
   spin  1
    eigenvalues: 
  0.771  0.771  0.828  0.828  0.829
    eigenvectors:
  0.244  0.754  0.002  0.000  0.000
  0.000  0.001  0.218  0.447  0.333
  0.001  0.000  0.119  0.546  0.333
  0.754  0.244  0.000  0.002  0.000
  0.000  0.001  0.660  0.005  0.333
    occupations:
  0.772  0.001  0.001  0.000  0.002
  0.001  0.828  0.001  0.002 -0.001
  0.001  0.001  0.828 -0.002 -0.001
  0.000  0.002 -0.002  0.772 -0.000
  0.002 -0.001 -0.001 -0.000  0.828
   spin  2
    eigenvalues: 
  0.151  0.151  0.172  0.635  0.635
    eigenvectors:
  0.004  0.000  0.000  0.290  0.705
  0.154  0.510  0.333  0.001  0.002
  0.178  0.486  0.333  0.003  0.000
  0.000  0.004  0.000  0.705  0.290
  0.664  0.000  0.333  0.001  0.002
    occupations:
  0.633  0.013  0.013  0.000  0.026
  0.013  0.160  0.006  0.022 -0.006
  0.013  0.006  0.160 -0.022 -0.006
  0.000  0.022 -0.022  0.633 -0.000
  0.026 -0.006 -0.006 -0.000  0.160
atomic mag. moment =     2.281635
atom    4   Tr[ns(na)] (up, down, total) =   4.02717  1.74554  5.77271
   spin  1
    eigenvalues: 
  0.771  0.771  0.828  0.828  0.829
    eigenvectors:
  0.214  0.784  0.002  0.000  0.000
  0.000  0.001  0.221  0.444  0.333
  0.001  0.000  0.117  0.549  0.333
  0.784  0.214  0.000  0.002  0.000
  0.000  0.001  0.660  0.006  0.333
    occupations:
  0.772  0.001  0.001  0.000  0.002
  0.001  0.828  0.001  0.002 -0.001
  0.001  0.001  0.828 -0.002 -0.001
  0.000  0.002 -0.002  0.772 -0.000
  0.002 -0.001 -0.001 -0.000  0.828
   spin  2
    eigenvalues: 
  0.151  0.151  0.172  0.635  0.635
    eigenvectors:
  0.004  0.000  0.000  0.204  0.792
  0.146  0.518  0.333  0.001  0.002
  0.187  0.477  0.333  0.003  0.000
  0.000  0.004  0.000  0.792  0.204
  0.663  0.001  0.333  0.001  0.002
    occupations:
  0.633  0.013  0.013  0.000  0.026
  0.013  0.160  0.006  0.022 -0.006
  0.013  0.006  0.160 -0.022 -0.006
  0.000  0.022 -0.022  0.633 -0.000
  0.026 -0.006 -0.006 -0.000  0.160
atomic mag. moment =     2.281635
N of occupied +U levels =   17.709209
 --- exit write_ns ---

     negative rho (up, down):  1.441E-02 0.000E+00
 --- in v_hubbard ---
Hubbard energy    0.8446
 -------

     total cpu time spent up to now is       27.7 secs

     total energy              =    -768.13071870 Ry
     Harris-Foulkes estimate   =    -768.11429176 Ry
     estimated scf accuracy    <       0.00518588 Ry

     total magnetization       =     3.92 Bohr mag/cell
     absolute magnetization    =     7.93 Bohr mag/cell

     iteration # 15     ecut=    30.00 Ry     beta= 0.30
     Davidson diagonalization with overlap
     ethr =  9.60E-06,  avg # of iterations =  3.3
 --- enter write_ns ---
 LDA+U parameters:
U( 2)     =  4.30000000
alpha( 2) =  0.00000000
U( 3)     =  4.30000000
alpha( 3) =  0.00000000
atom    2   Tr[ns(na)] (up, down, total) =   2.33308  3.86436  6.19744
   spin  1
    eigenvalues: 
  0.365  0.365  0.404  0.599  0.599
    eigenvectors:
  0.001  0.000  0.000  0.292  0.707
  0.227  0.438  0.333  0.000  0.001
  0.112  0.554  0.333  0.001  0.000
  0.000  0.001  0.000  0.707  0.292
  0.659  0.007  0.333  0.000  0.001
    occupations:
  0.599 -0.003 -0.003  0.000 -0.007
 -0.003  0.378  0.013 -0.006 -0.013
 -0.003  0.013  0.378  0.006 -0.013
  0.000 -0.006  0.006  0.599 -0.000
 -0.007 -0.013 -0.013 -0.000  0.378
   spin  2
    eigenvalues: 
  0.728  0.728  0.800  0.804  0.804
    eigenvectors:
  0.177  0.818  0.000  0.005  0.000
  0.001  0.002  0.333  0.134  0.529
  0.003  0.000  0.333  0.199  0.464
  0.818  0.177  0.000  0.000  0.005
  0.001  0.003  0.333  0.661  0.002
    occupations:
  0.728 -0.002 -0.002  0.000 -0.005
 -0.002  0.803 -0.001 -0.004  0.001
 -0.002 -0.001  0.803  0.004  0.001
  0.000 -0.004  0.004  0.728 -0.000
 -0.005  0.001  0.001 -0.000  0.803
atomic mag. moment =    -1.531280
atom    3   Tr[ns(na)] (up, down, total) =   4.03137  1.73972  5.77109
   spin  1
    eigenvalues: 
  0.773  0.773  0.828  0.828  0.830
    eigenvectors:
  0.338  0.661  0.001  0.000  0.000
  0.000  0.001  0.215  0.450  0.333
  0.001  0.000  0.122  0.544  0.333
  0.661  0.338  0.000  0.001  0.000
  0.000  0.001  0.661  0.004  0.333
    occupations:
  0.773  0.001  0.001  0.000  0.002
  0.001  0.828  0.001  0.001 -0.001
  0.001  0.001  0.828 -0.001 -0.001
  0.000  0.001 -0.001  0.773 -0.000
  0.002 -0.001 -0.001 -0.000  0.828
   spin  2
    eigenvalues: 
  0.148  0.148  0.170  0.637  0.637
    eigenvectors:
  0.003  0.000  0.000  0.259  0.737
  0.179  0.486  0.333  0.001  0.002
  0.154  0.510  0.333  0.002  0.000
  0.000  0.003  0.000  0.737  0.259
  0.664  0.000  0.333  0.001  0.002
    occupations:
  0.636  0.011  0.011  0.000  0.022
  0.011  0.156  0.007  0.019 -0.007
  0.011  0.007  0.156 -0.019 -0.007
  0.000  0.019 -0.019  0.636 -0.000
  0.022 -0.007 -0.007 -0.000  0.156
atomic mag. moment =     2.291645
atom    4   Tr[ns(na)] (up, down, total) =   4.03137  1.73972  5.77109
   spin  1
    eigenvalues: 
  0.773  0.773  0.828  0.828  0.830
    eigenvectors:
  0.348  0.650  0.001  0.000  0.000
  0.000  0.001  0.219  0.447  0.333
  0.001  0.000  0.119  0.547  0.333
  0.650  0.348  0.000  0.001  0.000
  0.000  0.001  0.661  0.005  0.333
    occupations:
  0.773  0.001  0.001  0.000  0.002
  0.001  0.828  0.001  0.001 -0.001
  0.001  0.001  0.828 -0.001 -0.001
  0.000  0.001 -0.001  0.773 -0.000
  0.002 -0.001 -0.001 -0.000  0.828
   spin  2
    eigenvalues: 
  0.148  0.148  0.170  0.637  0.637
    eigenvectors:
  0.003  0.000  0.000  0.195  0.802
  0.171  0.494  0.333  0.001  0.001
  0.161  0.503  0.333  0.002  0.000
  0.000  0.003  0.000  0.802  0.195
  0.665  0.000  0.333  0.000  0.002
    occupations:
  0.636  0.011  0.011  0.000  0.022
  0.011  0.156  0.007  0.019 -0.007
  0.011  0.007  0.156 -0.019 -0.007
  0.000  0.019 -0.019  0.636 -0.000
  0.022 -0.007 -0.007 -0.000  0.156
atomic mag. moment =     2.291645
N of occupied +U levels =   17.739627
 --- exit write_ns ---

     negative rho (up, down):  1.483E-02 0.000E+00
 --- in v_hubbard ---
Hubbard energy    0.8424
 -------

     total cpu time spent up to now is       30.1 secs

     total energy              =    -768.13869557 Ry
     Harris-Foulkes estimate   =    -768.13651247 Ry
     estimated scf accuracy    <       0.00233202 Ry

     total magnetization       =     3.97 Bohr mag/cell
     absolute magnetization    =     7.88 Bohr mag/cell

     iteration # 16     ecut=    30.00 Ry     beta= 0.30
     Davidson diagonalization with overlap
     ethr =  4.32E-06,  avg # of iterations =  2.3
 --- enter write_ns ---
 LDA+U parameters:
U( 2)     =  4.30000000
alpha( 2) =  0.00000000
U( 3)     =  4.30000000
alpha( 3) =  0.00000000
atom    2   Tr[ns(na)] (up, down, total) =   2.32535  3.85045  6.17580
   spin  1
    eigenvalues: 
  0.362  0.362  0.409  0.596  0.596
    eigenvectors:
  0.001  0.000  0.000  0.207  0.792
  0.232  0.434  0.333  0.000  0.000
  0.109  0.557  0.333  0.001  0.000
  0.000  0.001  0.000  0.792  0.207
  0.658  0.008  0.333  0.000  0.001
    occupations:
  0.596 -0.003 -0.003  0.000 -0.006
 -0.003  0.378  0.015 -0.005 -0.015
 -0.003  0.015  0.378  0.005 -0.015
  0.000 -0.005  0.005  0.596 -0.000
 -0.006 -0.015 -0.015 -0.000  0.378
   spin  2
    eigenvalues: 
  0.724  0.724  0.797  0.803  0.803
    eigenvectors:
  0.265  0.730  0.000  0.005  0.000
  0.001  0.003  0.333  0.155  0.509
  0.003  0.000  0.333  0.177  0.486
  0.730  0.265  0.000  0.000  0.005
  0.001  0.003  0.333  0.663  0.000
    occupations:
  0.724 -0.002 -0.002  0.000 -0.005
 -0.002  0.801 -0.002 -0.004  0.002
 -0.002 -0.002  0.801  0.004  0.002
  0.000 -0.004  0.004  0.724 -0.000
 -0.005  0.002  0.002 -0.000  0.801
atomic mag. moment =    -1.525103
atom    3   Tr[ns(na)] (up, down, total) =   4.03210  1.74589  5.77799
   spin  1
    eigenvalues: 
  0.773  0.773  0.828  0.828  0.830
    eigenvectors:
  0.298  0.701  0.001  0.000  0.000
  0.000  0.001  0.202  0.464  0.333
  0.001  0.000  0.134  0.532  0.333
  0.701  0.298  0.000  0.001  0.000
  0.000  0.001  0.664  0.002  0.333
    occupations:
  0.773  0.001  0.001  0.000  0.002
  0.001  0.829  0.001  0.001 -0.001
  0.001  0.001  0.829 -0.001 -0.001
  0.000  0.001 -0.001  0.773 -0.000
  0.002 -0.001 -0.001 -0.000  0.829
   spin  2
    eigenvalues: 
  0.148  0.148  0.169  0.640  0.640
    eigenvectors:
  0.003  0.000  0.000  0.252  0.745
  0.157  0.507  0.333  0.001  0.002
  0.175  0.489  0.333  0.002  0.000
  0.000  0.003  0.000  0.745  0.252
  0.664  0.000  0.333  0.001  0.002
    occupations:
  0.639  0.011  0.011  0.000  0.022
  0.011  0.156  0.006  0.019 -0.006
  0.011  0.006  0.156 -0.019 -0.006
  0.000  0.019 -0.019  0.639 -0.000
  0.022 -0.006 -0.006 -0.000  0.156
atomic mag. moment =     2.286214
atom    4   Tr[ns(na)] (up, down, total) =   4.03210  1.74589  5.77799
   spin  1
    eigenvalues: 
  0.773  0.773  0.828  0.828  0.830
    eigenvectors:
  0.280  0.718  0.001  0.000  0.000
  0.000  0.001  0.221  0.445  0.333
  0.001  0.000  0.118  0.548  0.333
  0.718  0.280  0.000  0.001  0.000
  0.000  0.001  0.660  0.005  0.333
    occupations:
  0.773  0.001  0.001  0.000  0.002
  0.001  0.829  0.001  0.001 -0.001
  0.001  0.001  0.829 -0.001 -0.001
  0.000  0.001 -0.001  0.773 -0.000
  0.002 -0.001 -0.001 -0.000  0.829
   spin  2
    eigenvalues: 
[...]

          k = 0.3062 0.3062-0.3062 (   756 PWs)   bands (ev):

   -75.1349 -75.1165 -71.7151 -39.6998 -39.5960 -39.5665 -39.3398 -39.3228
   -39.2482 -36.2762 -36.0804 -35.9786  -1.7556  10.2486  10.9305  12.0421
    12.1299  12.9678  13.2235  13.5669  13.7256  13.9652  14.4900  14.6715
    15.3659  15.4756  15.6948  17.6177  18.4561  19.4430  19.4709  20.4222

     occupation numbers 
     1.0000   1.0000   1.0000   1.0000   1.0000   1.0000   1.0000   1.0000
     1.0000   1.0000   1.0000   1.0000   1.0000   1.0000   1.0000   1.0000
     1.0000   1.0000   1.0000   1.0000   1.0000   1.0000   1.0000   1.0000
     1.0000   1.0000   1.0000   1.0000   0.8475   0.0083   0.0064   0.0000

          k =-1.0717 0.7655 0.1531 (   767 PWs)   bands (ev):

   -75.1406 -75.1361 -71.7419 -39.7510 -39.7311 -39.6109 -39.4679 -39.4513
   -39.4135 -36.3315 -36.2279 -36.1495  -1.4689  10.3050  11.1183  11.4284
    12.5156  12.8164  12.9954  13.6099  13.8107  13.9332  14.1743  14.6647
    14.8773  15.3402  16.9947  17.1794  18.2914  18.7229  19.0432  20.2793

     occupation numbers 
     1.0000   1.0000   1.0000   1.0000   1.0000   1.0000   1.0000   1.0000
     1.0000   1.0000   1.0000   1.0000   1.0000   1.0000   1.0000   1.0000
     1.0000   1.0000   1.0000   1.0000   1.0000   1.0000   1.0000   1.0000
     1.0000   1.0000   1.0000   1.0000   0.9448   0.5405   0.1567   0.0000

          k =-0.6124 0.6124 0.0000 (   759 PWs)   bands (ev):

   -75.1314 -75.1278 -71.7315 -39.5867 -39.5756 -39.4949 -39.4757 -39.4563
   -39.3697 -36.2235 -36.1923 -36.0843  -1.4655  10.3571  11.2351  11.5563
    12.3273  13.2279  13.2548  13.4499  13.7586  13.9520  14.4155  14.6398
    14.7156  15.8586  17.1264  17.5695  18.5897  18.6993  19.1618  20.1213

     occupation numbers 
     1.0000   1.0000   1.0000   1.0000   1.0000   1.0000   1.0000   1.0000
     1.0000   1.0000   1.0000   1.0000   1.0000   1.0000   1.0000   1.0000
     1.0000   1.0000   1.0000   1.0000   1.0000   1.0000   1.0000   1.0000
     1.0000   1.0000   1.0000   1.0000   0.7132   0.5727   0.0779   0.0000

          k =-0.6124-0.6124 0.6124 (   780 PWs)   bands (ev):

   -75.1607 -75.1539 -71.7585 -39.9227 -39.7500 -39.6619 -39.6344 -39.5925
   -39.5893 -36.4716 -36.2953 -36.2749  -1.4612   9.6250  11.5153  11.5904
    12.0416  12.9175  13.1513  13.4846  13.7588  13.7848  13.7986  13.8696
    15.1407  15.3003  15.7540  17.2840  18.4112  18.6931  19.1437  19.2733

     occupation numbers 
     1.0000   1.0000   1.0000   1.0000   1.0000   1.0000   1.0000   1.0000
     1.0000   1.0000   1.0000   1.0000   1.0000   1.0000   1.0000   1.0000
     1.0000   1.0000   1.0000   1.0000   1.0000   1.0000   1.0000   1.0000
     1.0000   1.0000   1.0000   1.0000   0.8813   0.5811   0.0875   0.0355

          k = 0.1531 0.1531 0.1531 (   748 PWs)   bands (ev):

   -75.1301 -75.1030 -71.6909 -39.6140 -39.4180 -39.4180 -39.3929 -39.2009
   -39.2009 -36.0870 -35.9937 -35.9937  -2.0216   9.4429  11.6995  12.0981
    12.0981  13.1613  13.1613  13.1932  13.8124  13.8124  14.3782  14.3782
    15.5394  16.3832  16.3832  18.0527  19.4400  19.4400  20.0331  20.3464

     occupation numbers 
     1.0000   1.0000   1.0000   1.0000   1.0000   1.0000   1.0000   1.0000
     1.0000   1.0000   1.0000   1.0000   1.0000   1.0000   1.0000   1.0000
     1.0000   1.0000   1.0000   1.0000   1.0000   1.0000   1.0000   1.0000
     1.0000   1.0000   1.0000   0.9923   0.0086   0.0086   0.0000   0.0000

          k =-1.2247 0.6124 0.6124 (   754 PWs)   bands (ev):

   -75.1277 -75.1161 -71.7115 -39.6438 -39.5967 -39.4355 -39.3338 -39.3256
   -39.2719 -36.1803 -36.0784 -35.9778  -1.7588  10.3289  11.0822  12.2927
    12.3337  12.7097  13.2935  13.3042  13.7140  13.7885  13.8085  14.0543
    14.9328  16.6896  17.0212  18.7050  18.8730  19.0422  19.6335  19.6539

     occupation numbers 
     1.0000   1.0000   1.0000   1.0000   1.0000   1.0000   1.0000   1.0000
     1.0000   1.0000   1.0000   1.0000   1.0000   1.0000   1.0000   1.0000
     1.0000   1.0000   1.0000   1.0000   1.0000   1.0000   1.0000   1.0000
     1.0000   1.0000   1.0000   0.5649   0.3378   0.1575   0.0011   0.0009

          k =-0.7655 0.4593 0.4593 (   764 PWs)   bands (ev):

   -75.1396 -75.1308 -71.7359 -39.7847 -39.7149 -39.5479 -39.4098 -39.3849
   -39.3694 -36.3784 -36.1369 -36.0809  -1.4644   9.7307  11.4395  12.1154
    12.2056  12.9250  13.3874  13.4318  13.9243  14.1199  14.1509  14.6187
    15.0354  15.6239  16.0054  17.3637  18.6013  18.7385  19.2969  20.4531

     occupation numbers 
     1.0000   1.0000   1.0000   1.0000   1.0000   1.0000   1.0000   1.0000
     1.0000   1.0000   1.0000   1.0000   1.0000   1.0000   1.0000   1.0000
     1.0000   1.0000   1.0000   1.0000   1.0000   1.0000   1.0000   1.0000
     1.0000   1.0000   1.0000   1.0000   0.6995   0.5189   0.0296   0.0000

          k =-0.7655-0.7655 1.0717 (   757 PWs)   bands (ev):

   -75.1274 -75.1248 -71.7140 -39.6868 -39.6069 -39.4217 -39.4136 -39.3101
   -39.2873 -36.2142 -36.1296 -36.0027  -1.7550  10.1876  11.1350  11.9801
    12.2419  12.8781  13.1300  13.5100  13.5987  13.7424  13.8886  14.3077
    15.2015  15.8596  16.9433  17.9730  18.4899  19.0369  19.5800  20.5401

     occupation numbers 
     1.0000   1.0000   1.0000   1.0000   1.0000   1.0000   1.0000   1.0000
     1.0000   1.0000   1.0000   1.0000   1.0000   1.0000   1.0000   1.0000
     1.0000   1.0000   1.0000   1.0000   1.0000   1.0000   1.0000   1.0000
     1.0000   1.0000   1.0000   0.9965   0.8182   0.1619   0.0021   0.0000

          k =-0.3062-0.9186 0.9186 (   764 PWs)   bands (ev):

   -75.1363 -75.1335 -71.7382 -39.6794 -39.6675 -39.5722 -39.5588 -39.3952
   -39.3877 -36.2777 -36.2311 -36.0792  -1.4704  10.3877  10.9954  11.5903
    12.5264  12.7821  12.8518  13.6836  13.9430  14.2036  14.3292  14.5754
    15.2037  15.2545  16.7141  17.0497  18.6923  18.6986  19.0769  20.7721

     occupation numbers 
     1.0000   1.0000   1.0000   1.0000   1.0000   1.0000   1.0000   1.0000
     1.0000   1.0000   1.0000   1.0000   1.0000   1.0000   1.0000   1.0000
     1.0000   1.0000   1.0000   1.0000   1.0000   1.0000   1.0000   1.0000
     1.0000   1.0000   1.0000   1.0000   0.5821   0.5736   0.1303   0.0000

          k =-0.3062-0.3062-0.3062 (   748 PWs)   bands (ev):

   -75.1176 -75.1150 -71.6917 -39.6747 -39.6188 -39.2596 -39.2596 -39.2368
   -39.2368 -36.2461 -35.9201 -35.9201  -2.0118   9.2282  12.0437  12.0437
    12.1235  12.7979  13.1901  13.1901  14.1038  14.1038  14.6651  14.6651
    15.8231  15.8231  16.0354  17.0099  18.8974  19.7493  19.7493  20.4921

     occupation numbers 
     1.0000   1.0000   1.0000   1.0000   1.0000   1.0000   1.0000   1.0000
     1.0000   1.0000   1.0000   1.0000   1.0000   1.0000   1.0000   1.0000
     1.0000   1.0000   1.0000   1.0000   1.0000   1.0000   1.0000   1.0000
     1.0000   1.0000   1.0000   1.0000   0.3074   0.0003   0.0003   0.0000

 ------ SPIN DOWN ----------


          k = 0.0000 0.0000 0.0000 (   731 PWs)   bands (ev):

   -73.6982 -71.8094 -71.6678 -37.7673 -37.7384 -37.7384 -36.6572 -36.3269
   -36.3269 -35.3082 -35.3082 -35.3079  -1.8441  11.0195  11.4936  13.5268
    13.5268  13.7399  13.7399  14.6204  15.0482  15.0482  18.0142  18.0142
    19.1570  19.6811  19.6811  20.8490  21.2846  21.2846  22.1717  22.5233

     occupation numbers 
     1.0000   1.0000   1.0000   1.0000   1.0000   1.0000   1.0000   1.0000
     1.0000   1.0000   1.0000   1.0000   1.0000   1.0000   1.0000   1.0000
     1.0000   1.0000   1.0000   1.0000   1.0000   1.0000   0.9947   0.9947
     0.0804   0.0006   0.0006   0.0000   0.0000   0.0000   0.0000   0.0000

          k = 0.4593-0.1531-0.1531 (   758 PWs)   bands (ev):

   -73.7303 -71.8067 -71.7638 -38.2121 -38.1435 -38.0818 -36.4591 -36.2952
   -36.1764 -36.1220 -36.0894 -35.8829  -1.5495  11.1519  11.7218  12.8151
    13.1822  13.6873  13.8276  14.6260  14.9784  15.0296  16.8981  17.5196
    18.4316  19.3946  19.7937  19.9418  20.1119  20.2382  20.7724  21.2174

     occupation numbers 
     1.0000   1.0000   1.0000   1.0000   1.0000   1.0000   1.0000   1.0000
     1.0000   1.0000   1.0000   1.0000   1.0000   1.0000   1.0000   1.0000
     1.0000   1.0000   1.0000   1.0000   1.0000   1.0000   1.0000   1.0000
     0.8667   0.0130   0.0002   0.0000   0.0000   0.0000   0.0000   0.0000

          k =-0.9186 0.3062 0.3062 (   764 PWs)   bands (ev):

   -73.7383 -71.8038 -71.7864 -38.3697 -38.2006 -38.0514 -36.3633 -36.3181
   -36.2921 -36.2889 -36.0710 -36.0661  -1.2341  10.6354  11.7306  12.8676
    13.6603  14.2054  14.4917  15.0506  15.5389  15.5410  16.2873  16.8672
    16.9887  18.6386  19.9222  19.9998  20.3132  20.7047  20.8630  20.9999

     occupation numbers 
     1.0000   1.0000   1.0000   1.0000   1.0000   1.0000   1.0000   1.0000
     1.0000   1.0000   1.0000   1.0000   1.0000   1.0000   1.0000   1.0000
     1.0000   1.0000   1.0000   1.0000   1.0000   1.0000   1.0000   1.0000
     1.0000   0.6531   0.0000   0.0000   0.0000   0.0000   0.0000   0.0000

          k = 0.3062 0.3062-0.3062 (   756 PWs)   bands (ev):

   -73.7264 -71.7953 -71.7655 -38.2910 -38.0690 -38.0084 -36.3325 -36.3068
   -36.2849 -36.0692 -35.9561 -35.9541  -1.5480  10.9612  11.8753  12.8388
    12.8910  13.8654  14.3300  14.5694  14.9491  15.5995  17.1174  17.2423
    17.6418  19.3286  19.8565  20.0130  20.0236  20.6664  20.9363  21.0686

     occupation numbers 
     1.0000   1.0000   1.0000   1.0000   1.0000   1.0000   1.0000   1.0000
     1.0000   1.0000   1.0000   1.0000   1.0000   1.0000   1.0000   1.0000
     1.0000   1.0000   1.0000   1.0000   1.0000   1.0000   1.0000   1.0000
     0.9999   0.0229   0.0001   0.0000   0.0000   0.0000   0.0000   0.0000

          k =-1.0717 0.7655 0.1531 (   767 PWs)   bands (ev):

   -73.7397 -71.8062 -71.7923 -38.3445 -38.2295 -38.0991 -36.4830 -36.4039
   -36.3350 -36.1869 -36.1199 -36.0981  -1.2434  11.2452  11.9225  12.4789
    13.6001  13.9200  14.0773  14.4044  14.4975  15.7337  16.7599  17.2209
    17.7414  19.4860  19.6244  19.8618  19.9825  20.1178  20.3380  21.0406

     occupation numbers 
     1.0000   1.0000   1.0000   1.0000   1.0000   1.0000   1.0000   1.0000
     1.0000   1.0000   1.0000   1.0000   1.0000   1.0000   1.0000   1.0000
     1.0000   1.0000   1.0000   1.0000   1.0000   1.0000   1.0000   1.0000
     0.9998   0.0055   0.0013   0.0001   0.0000   0.0000   0.0000   0.0000

          k =-0.6124 0.6124 0.0000 (   759 PWs)   bands (ev):

   -73.7316 -71.7976 -71.7821 -38.2466 -38.1764 -38.0522 -36.3022 -36.2671
   -36.1954 -36.1885 -36.1511 -36.0431  -1.2384  11.1667  11.9682  12.6035
    13.6302  13.8110  14.0323  14.6961  14.8569  15.7449  16.9572  17.3575
    17.9182  19.7980  19.8320  19.8662  19.9847  20.3401  20.3606  20.8676

     occupation numbers 
     1.0000   1.0000   1.0000   1.0000   1.0000   1.0000   1.0000   1.0000
     1.0000   1.0000   1.0000   1.0000   1.0000   1.0000   1.0000   1.0000
     1.0000   1.0000   1.0000   1.0000   1.0000   1.0000   1.0000   1.0000
     0.9981   0.0001   0.0001   0.0001   0.0000   0.0000   0.0000   0.0000

          k =-0.6124-0.6124 0.6124 (   780 PWs)   bands (ev):

   -73.7579 -71.8195 -71.8096 -38.4813 -38.3102 -38.2581 -36.6616 -36.4308
   -36.3279 -36.3251 -36.2863 -36.2852  -1.2464  10.9461  12.2692  12.6916
    13.1196  13.3319  13.8436  14.1124  15.0410  15.6628  15.8475  17.3937
    17.7773  19.4307  19.4811  19.5613  19.7091  19.8261  20.0456  21.0706

     occupation numbers 
     1.0000   1.0000   1.0000   1.0000   1.0000   1.0000   1.0000   1.0000
     1.0000   1.0000   1.0000   1.0000   1.0000   1.0000   1.0000   1.0000
     1.0000   1.0000   1.0000   1.0000   1.0000   1.0000   1.0000   1.0000
     0.9996   0.0094   0.0058   0.0025   0.0005   0.0001   0.0000   0.0000

          k = 0.1531 0.1531 0.1531 (   748 PWs)   bands (ev):

   -73.7170 -71.7772 -71.7504 -38.0516 -38.0229 -38.0229 -36.2495 -36.1600
   -36.1600 -36.0179 -35.8991 -35.8991  -1.8266   9.9947  12.5377  12.8699
    12.8699  14.2519  14.2519  14.7154  14.9433  14.9433  17.7827  17.7827
    18.5724  19.7856  19.7856  20.0995  20.7380  20.7380  20.8945  20.8945

     occupation numbers 
     1.0000   1.0000   1.0000   1.0000   1.0000   1.0000   1.0000   1.0000
     1.0000   1.0000   1.0000   1.0000   1.0000   1.0000   1.0000   1.0000
     1.0000   1.0000   1.0000   1.0000   1.0000   1.0000   0.9996   0.9996
     0.7334   0.0002   0.0002   0.0000   0.0000   0.0000   0.0000   0.0000

          k =-1.2247 0.6124 0.6124 (   754 PWs)   bands (ev):

   -73.7251 -71.7881 -71.7653 -38.2227 -38.0800 -38.0337 -36.2975 -36.2387
   -36.1491 -36.0536 -35.9695 -35.9670  -1.5441  10.7425  12.0042  13.1794
    13.3876  13.6412  13.9115  14.0948  14.9527  15.1004  17.4887  18.0555
    18.6804  19.8791  19.9911  20.0669  20.1397  20.2961  20.3506  20.9790

     occupation numbers 
     1.0000   1.0000   1.0000   1.0000   1.0000   1.0000   1.0000   1.0000
     1.0000   1.0000   1.0000   1.0000   1.0000   1.0000   1.0000   1.0000
     1.0000   1.0000   1.0000   1.0000   1.0000   1.0000   1.0000   0.9921
     0.5982   0.0000   0.0000   0.0000   0.0000   0.0000   0.0000   0.0000

          k =-0.7655 0.4593 0.4593 (   764 PWs)   bands (ev):

   -73.7372 -71.7995 -71.7870 -38.4161 -38.0934 -38.0910 -36.5179 -36.3779
   -36.1938 -36.1129 -36.1000 -36.0733  -1.2402  10.7873  11.9482  12.9764
    13.4486  13.8140  14.3774  14.5518  15.2947  15.6901  16.1080  17.3805
    17.4694  18.9859  19.7278  19.9646  20.2325  20.5344  20.9146  21.0230

     occupation numbers 
     1.0000   1.0000   1.0000   1.0000   1.0000   1.0000   1.0000   1.0000
     1.0000   1.0000   1.0000   1.0000   1.0000   1.0000   1.0000   1.0000
     1.0000   1.0000   1.0000   1.0000   1.0000   1.0000   1.0000   1.0000
     1.0000   0.2091   0.0004   0.0000   0.0000   0.0000   0.0000   0.0000

          k =-0.7655-0.7655 1.0717 (   757 PWs)   bands (ev):

   -73.7298 -71.7882 -71.7688 -38.2529 -38.0920 -38.0141 -36.3330 -36.2921
   -36.1146 -36.0885 -36.0454 -36.0094  -1.5430  10.6566  12.0159  12.6752
    13.3450  13.7355  14.1367  14.4021  14.9153  15.1471  17.3668  17.6945
    18.3445  19.6010  19.8816  19.9831  20.1556  20.2035  20.4613  21.0806

     occupation numbers 
     1.0000   1.0000   1.0000   1.0000   1.0000   1.0000   1.0000   1.0000
     1.0000   1.0000   1.0000   1.0000   1.0000   1.0000   1.0000   1.0000
     1.0000   1.0000   1.0000   1.0000   1.0000   1.0000   1.0000   0.9999
     0.9211   0.0016   0.0000   0.0000   0.0000   0.0000   0.0000   0.0000

          k =-0.3062-0.9186 0.9186 (   764 PWs)   bands (ev):

   -73.7371 -71.8013 -71.7887 -38.2887 -38.2805 -38.0494 -36.3286 -36.3282
   -36.3108 -36.2950 -36.0707 -36.0631  -1.2464  11.3924  11.8845  12.4037
    13.6357  13.8209  14.2431  14.2956  14.5932  15.7710  17.0555  17.2272
    17.4937  19.8226  19.8474  19.9668  19.9744  20.1721  20.2949  21.5103

     occupation numbers 
     1.0000   1.0000   1.0000   1.0000   1.0000   1.0000   1.0000   1.0000
     1.0000   1.0000   1.0000   1.0000   1.0000   1.0000   1.0000   1.0000
     1.0000   1.0000   1.0000   1.0000   1.0000   1.0000   1.0000   1.0000
     1.0000   0.0001   0.0001   0.0000   0.0000   0.0000   0.0000   0.0000

          k =-0.3062-0.3062-0.3062 (   748 PWs)   bands (ev):

   -73.7172 -71.7730 -71.7581 -38.1885 -37.9690 -37.9690 -36.3127 -36.2749
   -35.9748 -35.9748 -35.9383 -35.9383  -1.8071   9.5464  12.7257  12.7257
    12.9049  14.4594  14.4594  15.3642  15.3642  16.2954  16.3976  17.0764
    17.0764  19.4928  19.8096  19.8096  20.3261  20.9991  20.9991  21.2394

     occupation numbers 
     1.0000   1.0000   1.0000   1.0000   1.0000   1.0000   1.0000   1.0000
     1.0000   1.0000   1.0000   1.0000   1.0000   1.0000   1.0000   1.0000
     1.0000   1.0000   1.0000   1.0000   1.0000   1.0000   1.0000   1.0000
     1.0000   0.0051   0.0001   0.0001   0.0000   0.0000   0.0000   0.0000

     the Fermi energy is    18.7522 ev

!    total energy              =    -768.14207134 Ry
     Harris-Foulkes estimate   =    -768.14207127 Ry
     estimated scf accuracy    <          1.3E-09 Ry

     The total energy is the sum of the following terms:

     one-electron contribution =    -366.01884319 Ry
     hartree contribution      =     213.76131052 Ry
     xc contribution           =     -90.27051749 Ry
     ewald contribution        =    -526.43909482 Ry
     Hubbard energy            =       0.84332592 Ry
     smearing contrib. (-TS)   =      -0.01825228 Ry

     total magnetization       =     4.05 Bohr mag/cell
     absolute magnetization    =     7.78 Bohr mag/cell

     convergence has been achieved in  44 iterations

     Writing output data file feo.save/

     init_run     :      0.80s CPU      0.83s WALL (       1 calls)
     electrons    :     87.24s CPU     89.99s WALL (       1 calls)

     Called by init_run:
     wfcinit      :      0.41s CPU      0.44s WALL (       1 calls)
     wfcinit:atom :      0.00s CPU      0.00s WALL (      26 calls)
     wfcinit:wfcr :      0.36s CPU      0.39s WALL (      26 calls)
     potinit      :      0.05s CPU      0.05s WALL (       1 calls)
     hinit0       :      0.28s CPU      0.29s WALL (       1 calls)

     Called by electrons:
     c_bands      :     72.45s CPU     74.75s WALL (      44 calls)
     sum_band     :     11.17s CPU     11.58s WALL (      44 calls)
     v_of_rho     :      1.82s CPU      1.84s WALL (      45 calls)
     v_h          :      0.04s CPU      0.04s WALL (      45 calls)
     v_xc         :      1.77s CPU      1.79s WALL (      45 calls)
     newd         :      1.50s CPU      1.50s WALL (      45 calls)
     mix_rho      :      0.17s CPU      0.18s WALL (      44 calls)

     Called by c_bands:
     init_us_2    :      0.31s CPU      0.32s WALL (    2340 calls)
     cegterg      :     71.30s CPU     73.59s WALL (    1144 calls)

     Called by sum_band:
     sum_band:bec :      0.09s CPU      0.10s WALL (    1144 calls)
     addusdens    :      2.11s CPU      2.12s WALL (      44 calls)

     Called by *egterg:
     h_psi        :     43.91s CPU     45.90s WALL (    4646 calls)
     s_psi        :      2.44s CPU      2.51s WALL (    4672 calls)
     g_psi        :      0.10s CPU      0.10s WALL (    3476 calls)
     cdiaghg      :     16.39s CPU     16.52s WALL (    4620 calls)
     cegterg:over :      3.88s CPU      3.97s WALL (    3476 calls)
     cegterg:upda :      2.35s CPU      2.37s WALL (    3476 calls)
     cegterg:last :      1.18s CPU      1.18s WALL (    1145 calls)

     Called by h_psi:
     h_psi:pot    :     42.51s CPU     44.45s WALL (    4646 calls)
     h_psi:calbec :      2.49s CPU      2.61s WALL (    4646 calls)
     vloc_psi     :     37.61s CPU     39.32s WALL (    4646 calls)
     add_vuspsi   :      2.40s CPU      2.51s WALL (    4646 calls)
     vhpsi        :      1.31s CPU      1.36s WALL (    4646 calls)

     General routines
     calbec       :      4.41s CPU      4.62s WALL (   11606 calls)
     fft          :      0.69s CPU      0.71s WALL (    1119 calls)
     ffts         :      0.05s CPU      0.05s WALL (     178 calls)
     fftw         :     40.77s CPU     42.61s WALL (  235614 calls)
     interpolate  :      0.09s CPU      0.09s WALL (      90 calls)
     davcio       :      0.00s CPU      0.00s WALL (      26 calls)

     Parallel routines
     fft_scatt_xy :      4.49s CPU      4.71s WALL (  236911 calls)
     fft_scatt_yz :      8.68s CPU      9.05s WALL (  236911 calls)

     Hubbard U routines
     new_ns       :      0.29s CPU      0.30s WALL (      44 calls)
     vhpsi        :      1.31s CPU      1.36s WALL (    4646 calls)

     PWSCF        :   1m29.33s CPU   1m32.15s WALL


   This run was terminated on:  19:53:50  17Oct2020            

=------------------------------------------------------------------------------=
   JOB DONE.
=------------------------------------------------------------------------------=
