
     Program PWSCF v.6.4.1 starts on 17Oct2020 at 23:53:29 

     This program is part of the open-source Quantum ESPRESSO suite
     for quantum simulation of materials; please cite
         "P. Giannozzi et al., J. Phys.:Condens. Matter 21 395502 (2009);
         "P. Giannozzi et al., J. Phys.:Condens. Matter 29 465901 (2017);
          URL http://www.quantum-espresso.org", 
     in publications or presentations arising from this work. More details at
     http://www.quantum-espresso.org/quote

     Parallel version (MPI), running on     4 processors

     MPI processes distributed on     1 nodes
     R & G space division:  proc/nbgrp/npool/nimage =       4
     Reading input from si.pwi
Warning: card &IONS ignored
Warning: card / ignored
Warning: card &CELL ignored
Warning: card / ignored

     Current dimensions of program PWSCF are:
     Max number of different atomic species (ntypx) = 10
     Max number of k-points (npk) =  40000
     Max angular momentum in pseudopotentials (lmaxx) =  3
               file Si.pbe-n-kjpaw_psl.1.0.0.UPF: wavefunction(s)  3S 3P renormalized

     Subspace diagonalization in iterative solution of the eigenvalue problem:
     a serial algorithm will be used

     Message from routine setup:
     DEPRECATED: symmetry with ibrav=0, use correct ibrav instead

     Parallelization info
     --------------------
     sticks:   dense  smooth     PW     G-vecs:    dense   smooth      PW
     Min          73      73     22                  821      821     152
     Max          74      74     23                  823      823     153
     Sum         295     295     91                 3287     3287     609



     bravais-lattice index     =            0
     lattice parameter (alat)  =       7.2558  a.u.
     unit-cell volume          =     270.1074 (a.u.)^3
     number of atoms/cell      =            2
     number of atomic types    =            1
     number of electrons       =         8.00
     number of Kohn-Sham states=            4
     kinetic-energy cutoff     =      20.0000  Ry
     charge density cutoff     =      80.0000  Ry
     convergence threshold     =      1.0E-06
     mixing beta               =       0.7000
     number of iterations used =            8  plain     mixing
     Exchange-correlation      = SLA PW PBX PBC ( 1  4  3  4 0 0)

     celldm(1)=   7.255775  celldm(2)=   0.000000  celldm(3)=   0.000000
     celldm(4)=   0.000000  celldm(5)=   0.000000  celldm(6)=   0.000000

     crystal axes: (cart. coord. in units of alat)
               a(1) = (   0.000000   0.707107   0.707107 )  
               a(2) = (   0.707107   0.000000   0.707107 )  
               a(3) = (   0.707107   0.707107   0.000000 )  

     reciprocal axes: (cart. coord. in units 2 pi/alat)
               b(1) = ( -0.707107  0.707107  0.707107 )  
               b(2) = (  0.707107 -0.707107  0.707107 )  
               b(3) = (  0.707107  0.707107 -0.707107 )  


     PseudoPot. # 1 for Si read from file:
     /home/xing/datas/pseudo/Si.pbe-n-kjpaw_psl.1.0.0.UPF
     MD5 check sum: c39c59da582df4a0d9f10159256ea34e
     Pseudo is Projector augmented-wave + core cor, Zval =  4.0
     Generated using "atomic" code by A. Dal Corso v.6.3
     Shape of augmentation charge: PSQ
     Using radial grid of 1141 points,  6 beta functions with: 
                l(1) =   0
                l(2) =   0
                l(3) =   1
                l(4) =   1
                l(5) =   2
                l(6) =   2
     Q(r) pseudized with 0 coefficients 


     atomic species   valence    mass     pseudopotential
        Si             4.00    28.08500     Si( 1.00)

     48 Sym. Ops., with inversion, found (24 have fractional translation)


                                    s                        frac. trans.

      isym =  1     identity                                     

 cryst.   s( 1) = (     1          0          0      )
                  (     0          1          0      )
                  (     0          0          1      )

 cart.    s( 1) = (  1.0000000  0.0000000  0.0000000 )
                  (  0.0000000  1.0000000  0.0000000 )
                  (  0.0000000  0.0000000  1.0000000 )


      isym =  2     180 deg rotation - cart. axis [0,0,1]        

 cryst.   s( 2) = (     0          1         -1      )
                  (     1          0         -1      )
                  (     0          0         -1      )

 cart.    s( 2) = ( -1.0000000  0.0000000  0.0000000 )
                  (  0.0000000 -1.0000000  0.0000000 )
                  (  0.0000000  0.0000000  1.0000000 )


      isym =  3     180 deg rotation - cart. axis [0,1,0]        

 cryst.   s( 3) = (     0         -1          1      )
                  (     0         -1          0      )
                  (     1         -1          0      )

 cart.    s( 3) = ( -1.0000000  0.0000000  0.0000000 )
                  (  0.0000000  1.0000000  0.0000000 )
                  (  0.0000000  0.0000000 -1.0000000 )


      isym =  4     180 deg rotation - cart. axis [1,0,0]        

 cryst.   s( 4) = (    -1          0          0      )
                  (    -1          0          1      )
                  (    -1          1          0      )

 cart.    s( 4) = (  1.0000000  0.0000000  0.0000000 )
                  (  0.0000000 -1.0000000  0.0000000 )
                  (  0.0000000  0.0000000 -1.0000000 )


      isym =  5     180 deg rotation - cart. axis [1,1,0]        

 cryst.   s( 5) = (    -1          0          1      )    f =( -0.2499999 )
                  (     0         -1          1      )       ( -0.2499999 )
                  (     0          0          1      )       ( -0.2500002 )

 cart.    s( 5) = (  0.0000000  1.0000000  0.0000000 )    f =( -0.3535535 )
                  (  1.0000000  0.0000000  0.0000000 )       ( -0.3535535 )
                  (  0.0000000  0.0000000 -1.0000000 )       ( -0.3535533 )


      isym =  6     180 deg rotation - cart. axis [1,-1,0]       

 cryst.   s( 6) = (     0         -1          0      )    f =( -0.2499999 )
                  (    -1          0          0      )       ( -0.2499999 )
                  (     0          0         -1      )       ( -0.2499999 )

 cart.    s( 6) = (  0.0000000 -1.0000000  0.0000000 )    f =( -0.3535533 )
                  ( -1.0000000  0.0000000  0.0000000 )       ( -0.3535533 )
                  (  0.0000000  0.0000000 -1.0000000 )       ( -0.3535533 )


      isym =  7      90 deg rotation - cart. axis [0,0,-1]       

 cryst.   s( 7) = (     0          1          0      )    f =( -0.2499999 )
                  (     0          1         -1      )       ( -0.2500002 )
                  (    -1          1          0      )       ( -0.2499999 )

 cart.    s( 7) = (  0.0000000  1.0000000  0.0000000 )    f =( -0.3535535 )
                  ( -1.0000000  0.0000000  0.0000000 )       ( -0.3535533 )
                  (  0.0000000  0.0000000  1.0000000 )       ( -0.3535535 )


      isym =  8      90 deg rotation - cart. axis [0,0,1]        

 cryst.   s( 8) = (     1          0         -1      )    f =( -0.2500002 )
                  (     1          0          0      )       ( -0.2499999 )
                  (     1         -1          0      )       ( -0.2499999 )

 cart.    s( 8) = (  0.0000000 -1.0000000  0.0000000 )    f =( -0.3535533 )
                  (  1.0000000  0.0000000  0.0000000 )       ( -0.3535535 )
                  (  0.0000000  0.0000000  1.0000000 )       ( -0.3535535 )


      isym =  9     180 deg rotation - cart. axis [1,0,1]        

 cryst.   s( 9) = (    -1          1          0      )    f =( -0.2499999 )
                  (     0          1          0      )       ( -0.2500002 )
                  (     0          1         -1      )       ( -0.2499999 )

 cart.    s( 9) = (  0.0000000  0.0000000  1.0000000 )    f =( -0.3535535 )
                  (  0.0000000 -1.0000000  0.0000000 )       ( -0.3535533 )
                  (  1.0000000  0.0000000  0.0000000 )       ( -0.3535535 )


      isym = 10     180 deg rotation - cart. axis [-1,0,1]       

 cryst.   s(10) = (     0          0         -1      )    f =( -0.2499999 )
                  (     0         -1          0      )       ( -0.2499999 )
                  (    -1          0          0      )       ( -0.2499999 )

 cart.    s(10) = (  0.0000000  0.0000000 -1.0000000 )    f =( -0.3535533 )
                  (  0.0000000 -1.0000000  0.0000000 )       ( -0.3535533 )
                  ( -1.0000000  0.0000000  0.0000000 )       ( -0.3535533 )


      isym = 11      90 deg rotation - cart. axis [0,1,0]        

 cryst.   s(11) = (     0          0          1      )    f =( -0.2499999 )
                  (    -1          0          1      )       ( -0.2499999 )
                  (     0         -1          1      )       ( -0.2500002 )

 cart.    s(11) = (  0.0000000  0.0000000  1.0000000 )    f =( -0.3535535 )
                  (  0.0000000  1.0000000  0.0000000 )       ( -0.3535535 )
                  ( -1.0000000  0.0000000  0.0000000 )       ( -0.3535533 )


      isym = 12      90 deg rotation - cart. axis [0,-1,0]       

 cryst.   s(12) = (     1         -1          0      )    f =( -0.2500002 )
                  (     1          0         -1      )       ( -0.2499999 )
                  (     1          0          0      )       ( -0.2499999 )

 cart.    s(12) = (  0.0000000  0.0000000 -1.0000000 )    f =( -0.3535533 )
                  (  0.0000000  1.0000000  0.0000000 )       ( -0.3535535 )
                  (  1.0000000  0.0000000  0.0000000 )       ( -0.3535535 )


      isym = 13     180 deg rotation - cart. axis [0,1,1]        

 cryst.   s(13) = (     1          0          0      )    f =( -0.2500002 )
                  (     1         -1          0      )       ( -0.2499999 )
                  (     1          0         -1      )       ( -0.2499999 )

 cart.    s(13) = ( -1.0000000  0.0000000  0.0000000 )    f =( -0.3535533 )
                  (  0.0000000  0.0000000  1.0000000 )       ( -0.3535535 )
                  (  0.0000000  1.0000000  0.0000000 )       ( -0.3535535 )


      isym = 14     180 deg rotation - cart. axis [0,1,-1]       

 cryst.   s(14) = (    -1          0          0      )    f =( -0.2499999 )
                  (     0          0         -1      )       ( -0.2499999 )
                  (     0         -1          0      )       ( -0.2499999 )

 cart.    s(14) = ( -1.0000000  0.0000000  0.0000000 )    f =( -0.3535533 )
                  (  0.0000000  0.0000000 -1.0000000 )       ( -0.3535533 )
                  (  0.0000000 -1.0000000  0.0000000 )       ( -0.3535533 )


      isym = 15      90 deg rotation - cart. axis [-1,0,0]       

 cryst.   s(15) = (     0         -1          1      )    f =( -0.2499999 )
                  (     0          0          1      )       ( -0.2499999 )
                  (    -1          0          1      )       ( -0.2500002 )

 cart.    s(15) = (  1.0000000  0.0000000  0.0000000 )    f =( -0.3535535 )
                  (  0.0000000  0.0000000  1.0000000 )       ( -0.3535535 )
                  (  0.0000000 -1.0000000  0.0000000 )       ( -0.3535533 )


      isym = 16      90 deg rotation - cart. axis [1,0,0]        

 cryst.   s(16) = (     0          1         -1      )    f =( -0.2499999 )
                  (    -1          1          0      )       ( -0.2500002 )
                  (     0          1          0      )       ( -0.2499999 )

 cart.    s(16) = (  1.0000000  0.0000000  0.0000000 )    f =( -0.3535535 )
                  (  0.0000000  0.0000000 -1.0000000 )       ( -0.3535533 )
                  (  0.0000000  1.0000000  0.0000000 )       ( -0.3535535 )


      isym = 17     120 deg rotation - cart. axis [-1,-1,-1]     

 cryst.   s(17) = (     0          0          1      )
                  (     1          0          0      )
                  (     0          1          0      )

 cart.    s(17) = (  0.0000000  1.0000000  0.0000000 )
                  (  0.0000000  0.0000000  1.0000000 )
                  (  1.0000000  0.0000000  0.0000000 )


      isym = 18     120 deg rotation - cart. axis [-1,1,1]       

 cryst.   s(18) = (     1         -1          0      )
                  (     0         -1          1      )
                  (     0         -1          0      )

 cart.    s(18) = (  0.0000000 -1.0000000  0.0000000 )
                  (  0.0000000  0.0000000  1.0000000 )
                  ( -1.0000000  0.0000000  0.0000000 )


      isym = 19     120 deg rotation - cart. axis [1,1,-1]       

 cryst.   s(19) = (    -1          1          0      )
                  (    -1          0          0      )
                  (    -1          0          1      )

 cart.    s(19) = (  0.0000000  1.0000000  0.0000000 )
                  (  0.0000000  0.0000000 -1.0000000 )
                  ( -1.0000000  0.0000000  0.0000000 )


      isym = 20     120 deg rotation - cart. axis [1,-1,1]       

 cryst.   s(20) = (     0          0         -1      )
                  (     0          1         -1      )
                  (     1          0         -1      )

 cart.    s(20) = (  0.0000000 -1.0000000  0.0000000 )
                  (  0.0000000  0.0000000 -1.0000000 )
                  (  1.0000000  0.0000000  0.0000000 )


      isym = 21     120 deg rotation - cart. axis [1,1,1]        

 cryst.   s(21) = (     0          1          0      )
                  (     0          0          1      )
                  (     1          0          0      )

 cart.    s(21) = (  0.0000000  0.0000000  1.0000000 )
                  (  1.0000000  0.0000000  0.0000000 )
                  (  0.0000000  1.0000000  0.0000000 )


      isym = 22     120 deg rotation - cart. axis [-1,1,-1]      

 cryst.   s(22) = (    -1          0          1      )
                  (    -1          1          0      )
                  (    -1          0          0      )

 cart.    s(22) = (  0.0000000  0.0000000  1.0000000 )
                  ( -1.0000000  0.0000000  0.0000000 )
                  (  0.0000000 -1.0000000  0.0000000 )


      isym = 23     120 deg rotation - cart. axis [1,-1,-1]      

 cryst.   s(23) = (     1          0         -1      )
                  (     0          0         -1      )
                  (     0          1         -1      )

 cart.    s(23) = (  0.0000000  0.0000000 -1.0000000 )
                  ( -1.0000000  0.0000000  0.0000000 )
                  (  0.0000000  1.0000000  0.0000000 )


      isym = 24     120 deg rotation - cart. axis [-1,-1,1]      

 cryst.   s(24) = (     0         -1          0      )
                  (     1         -1          0      )
                  (     0         -1          1      )

 cart.    s(24) = (  0.0000000  0.0000000 -1.0000000 )
                  (  1.0000000  0.0000000  0.0000000 )
                  (  0.0000000 -1.0000000  0.0000000 )


      isym = 25     inversion                                    

 cryst.   s(25) = (    -1          0          0      )    f =( -0.2499999 )
                  (     0         -1          0      )       ( -0.2499999 )
                  (     0          0         -1      )       ( -0.2499999 )

 cart.    s(25) = ( -1.0000000  0.0000000  0.0000000 )    f =( -0.3535533 )
                  (  0.0000000 -1.0000000  0.0000000 )       ( -0.3535533 )
                  (  0.0000000  0.0000000 -1.0000000 )       ( -0.3535533 )


      isym = 26     inv. 180 deg rotation - cart. axis [0,0,1]   

 cryst.   s(26) = (     0         -1          1      )    f =( -0.2499999 )
                  (    -1          0          1      )       ( -0.2499999 )
                  (     0          0          1      )       ( -0.2500002 )

 cart.    s(26) = (  1.0000000  0.0000000  0.0000000 )    f =( -0.3535535 )
                  (  0.0000000  1.0000000  0.0000000 )       ( -0.3535535 )
                  (  0.0000000  0.0000000 -1.0000000 )       ( -0.3535533 )


      isym = 27     inv. 180 deg rotation - cart. axis [0,1,0]   

 cryst.   s(27) = (     0          1         -1      )    f =( -0.2499999 )
                  (     0          1          0      )       ( -0.2500002 )
                  (    -1          1          0      )       ( -0.2499999 )

 cart.    s(27) = (  1.0000000  0.0000000  0.0000000 )    f =( -0.3535535 )
                  (  0.0000000 -1.0000000  0.0000000 )       ( -0.3535533 )
                  (  0.0000000  0.0000000  1.0000000 )       ( -0.3535535 )


      isym = 28     inv. 180 deg rotation - cart. axis [1,0,0]   

 cryst.   s(28) = (     1          0          0      )    f =( -0.2500002 )
                  (     1          0         -1      )       ( -0.2499999 )
                  (     1         -1          0      )       ( -0.2499999 )

 cart.    s(28) = ( -1.0000000  0.0000000  0.0000000 )    f =( -0.3535533 )
                  (  0.0000000  1.0000000  0.0000000 )       ( -0.3535535 )
                  (  0.0000000  0.0000000  1.0000000 )       ( -0.3535535 )


      isym = 29     inv. 180 deg rotation - cart. axis [1,1,0]   

 cryst.   s(29) = (     1          0         -1      )
                  (     0          1         -1      )
                  (     0          0         -1      )

 cart.    s(29) = (  0.0000000 -1.0000000  0.0000000 )
                  ( -1.0000000  0.0000000  0.0000000 )
                  (  0.0000000  0.0000000  1.0000000 )


      isym = 30     inv. 180 deg rotation - cart. axis [1,-1,0]  

 cryst.   s(30) = (     0          1          0      )
                  (     1          0          0      )
                  (     0          0          1      )

 cart.    s(30) = (  0.0000000  1.0000000  0.0000000 )
                  (  1.0000000  0.0000000  0.0000000 )
                  (  0.0000000  0.0000000  1.0000000 )


      isym = 31     inv.  90 deg rotation - cart. axis [0,0,-1]  

 cryst.   s(31) = (     0         -1          0      )
                  (     0         -1          1      )
                  (     1         -1          0      )

 cart.    s(31) = (  0.0000000 -1.0000000  0.0000000 )
                  (  1.0000000  0.0000000  0.0000000 )
                  (  0.0000000  0.0000000 -1.0000000 )


      isym = 32     inv.  90 deg rotation - cart. axis [0,0,1]   

 cryst.   s(32) = (    -1          0          1      )
                  (    -1          0          0      )
                  (    -1          1          0      )

 cart.    s(32) = (  0.0000000  1.0000000  0.0000000 )
                  ( -1.0000000  0.0000000  0.0000000 )
                  (  0.0000000  0.0000000 -1.0000000 )


      isym = 33     inv. 180 deg rotation - cart. axis [1,0,1]   

 cryst.   s(33) = (     1         -1          0      )
                  (     0         -1          0      )
                  (     0         -1          1      )

 cart.    s(33) = (  0.0000000  0.0000000 -1.0000000 )
                  (  0.0000000  1.0000000  0.0000000 )
                  ( -1.0000000  0.0000000  0.0000000 )


      isym = 34     inv. 180 deg rotation - cart. axis [-1,0,1]  

 cryst.   s(34) = (     0          0          1      )
                  (     0          1          0      )
                  (     1          0          0      )

 cart.    s(34) = (  0.0000000  0.0000000  1.0000000 )
                  (  0.0000000  1.0000000  0.0000000 )
                  (  1.0000000  0.0000000  0.0000000 )


      isym = 35     inv.  90 deg rotation - cart. axis [0,1,0]   

 cryst.   s(35) = (     0          0         -1      )
                  (     1          0         -1      )
                  (     0          1         -1      )

 cart.    s(35) = (  0.0000000  0.0000000 -1.0000000 )
                  (  0.0000000 -1.0000000  0.0000000 )
                  (  1.0000000  0.0000000  0.0000000 )


      isym = 36     inv.  90 deg rotation - cart. axis [0,-1,0]  

 cryst.   s(36) = (    -1          1          0      )
                  (    -1          0          1      )
                  (    -1          0          0      )

 cart.    s(36) = (  0.0000000  0.0000000  1.0000000 )
                  (  0.0000000 -1.0000000  0.0000000 )
                  ( -1.0000000  0.0000000  0.0000000 )


      isym = 37     inv. 180 deg rotation - cart. axis [0,1,1]   

 cryst.   s(37) = (    -1          0          0      )
                  (    -1          1          0      )
                  (    -1          0          1      )

 cart.    s(37) = (  1.0000000  0.0000000  0.0000000 )
                  (  0.0000000  0.0000000 -1.0000000 )
                  (  0.0000000 -1.0000000  0.0000000 )


      isym = 38     inv. 180 deg rotation - cart. axis [0,1,-1]  

 cryst.   s(38) = (     1          0          0      )
                  (     0          0          1      )
                  (     0          1          0      )

 cart.    s(38) = (  1.0000000  0.0000000  0.0000000 )
                  (  0.0000000  0.0000000  1.0000000 )
                  (  0.0000000  1.0000000  0.0000000 )


      isym = 39     inv.  90 deg rotation - cart. axis [-1,0,0]  

 cryst.   s(39) = (     0          1         -1      )
                  (     0          0         -1      )
                  (     1          0         -1      )

 cart.    s(39) = ( -1.0000000  0.0000000  0.0000000 )
                  (  0.0000000  0.0000000 -1.0000000 )
                  (  0.0000000  1.0000000  0.0000000 )


      isym = 40     inv.  90 deg rotation - cart. axis [1,0,0]   

 cryst.   s(40) = (     0         -1          1      )
                  (     1         -1          0      )
                  (     0         -1          0      )

 cart.    s(40) = ( -1.0000000  0.0000000  0.0000000 )
                  (  0.0000000  0.0000000  1.0000000 )
                  (  0.0000000 -1.0000000  0.0000000 )


      isym = 41     inv. 120 deg rotation - cart. axis [-1,-1,-1]

 cryst.   s(41) = (     0          0         -1      )    f =( -0.2499999 )
                  (    -1          0          0      )       ( -0.2499999 )
                  (     0         -1          0      )       ( -0.2499999 )

 cart.    s(41) = (  0.0000000 -1.0000000  0.0000000 )    f =( -0.3535533 )
                  (  0.0000000  0.0000000 -1.0000000 )       ( -0.3535533 )
                  ( -1.0000000  0.0000000  0.0000000 )       ( -0.3535533 )


      isym = 42     inv. 120 deg rotation - cart. axis [-1,1,1]  

 cryst.   s(42) = (    -1          1          0      )    f =( -0.2499999 )
                  (     0          1         -1      )       ( -0.2500002 )
                  (     0          1          0      )       ( -0.2499999 )

 cart.    s(42) = (  0.0000000  1.0000000  0.0000000 )    f =( -0.3535535 )
                  (  0.0000000  0.0000000 -1.0000000 )       ( -0.3535533 )
                  (  1.0000000  0.0000000  0.0000000 )       ( -0.3535535 )


      isym = 43     inv. 120 deg rotation - cart. axis [1,1,-1]  

 cryst.   s(43) = (     1         -1          0      )    f =( -0.2500002 )
                  (     1          0          0      )       ( -0.2499999 )
                  (     1          0         -1      )       ( -0.2499999 )

 cart.    s(43) = (  0.0000000 -1.0000000  0.0000000 )    f =( -0.3535533 )
                  (  0.0000000  0.0000000  1.0000000 )       ( -0.3535535 )
                  (  1.0000000  0.0000000  0.0000000 )       ( -0.3535535 )


      isym = 44     inv. 120 deg rotation - cart. axis [1,-1,1]  

 cryst.   s(44) = (     0          0          1      )    f =( -0.2499999 )
                  (     0         -1          1      )       ( -0.2499999 )
                  (    -1          0          1      )       ( -0.2500002 )

 cart.    s(44) = (  0.0000000  1.0000000  0.0000000 )    f =( -0.3535535 )
                  (  0.0000000  0.0000000  1.0000000 )       ( -0.3535535 )
                  ( -1.0000000  0.0000000  0.0000000 )       ( -0.3535533 )


      isym = 45     inv. 120 deg rotation - cart. axis [1,1,1]   

 cryst.   s(45) = (     0         -1          0      )    f =( -0.2499999 )
                  (     0          0         -1      )       ( -0.2499999 )
                  (    -1          0          0      )       ( -0.2499999 )

 cart.    s(45) = (  0.0000000  0.0000000 -1.0000000 )    f =( -0.3535533 )
                  ( -1.0000000  0.0000000  0.0000000 )       ( -0.3535533 )
                  (  0.0000000 -1.0000000  0.0000000 )       ( -0.3535533 )


      isym = 46     inv. 120 deg rotation - cart. axis [-1,1,-1] 

 cryst.   s(46) = (     1          0         -1      )    f =( -0.2500002 )
                  (     1         -1          0      )       ( -0.2499999 )
                  (     1          0          0      )       ( -0.2499999 )

 cart.    s(46) = (  0.0000000  0.0000000 -1.0000000 )    f =( -0.3535533 )
                  (  1.0000000  0.0000000  0.0000000 )       ( -0.3535535 )
                  (  0.0000000  1.0000000  0.0000000 )       ( -0.3535535 )


      isym = 47     inv. 120 deg rotation - cart. axis [1,-1,-1] 

 cryst.   s(47) = (    -1          0          1      )    f =( -0.2499999 )
                  (     0          0          1      )       ( -0.2499999 )
                  (     0         -1          1      )       ( -0.2500002 )

 cart.    s(47) = (  0.0000000  0.0000000  1.0000000 )    f =( -0.3535535 )
                  (  1.0000000  0.0000000  0.0000000 )       ( -0.3535535 )
                  (  0.0000000 -1.0000000  0.0000000 )       ( -0.3535533 )


      isym = 48     inv. 120 deg rotation - cart. axis [-1,-1,1] 

 cryst.   s(48) = (     0          1          0      )    f =( -0.2499999 )
                  (    -1          1          0      )       ( -0.2500002 )
                  (     0          1         -1      )       ( -0.2499999 )

 cart.    s(48) = (  0.0000000  0.0000000  1.0000000 )    f =( -0.3535535 )
                  ( -1.0000000  0.0000000  0.0000000 )       ( -0.3535533 )
                  (  0.0000000  1.0000000  0.0000000 )       ( -0.3535535 )


   Cartesian axes

     site n.     atom                  positions (alat units)
         1           Si  tau(   1) = (   0.0000000   0.0000000   0.0000000  )
         2           Si  tau(   2) = (   0.3535533   0.3535533   0.3535533  )

   Crystallographic axes

     site n.     atom                  positions (cryst. coord.)
         1           Si  tau(   1) = (  0.0000000  0.0000000  0.0000000  )
         2           Si  tau(   2) = (  0.2499999  0.2499999  0.2499999  )

     number of k points=   100
                       cart. coord. in units 2pi/alat
        k(    1) = (   0.0000000   0.0000000   0.0000000), wk =   0.0200000
        k(    2) = (   0.0000000   0.0214275   0.0000000), wk =   0.0200000
        k(    3) = (   0.0000000   0.0428550   0.0000000), wk =   0.0200000
        k(    4) = (   0.0000000   0.0642824   0.0000000), wk =   0.0200000
        k(    5) = (   0.0000000   0.0857099   0.0000000), wk =   0.0200000
        k(    6) = (   0.0000000   0.1071374   0.0000000), wk =   0.0200000
        k(    7) = (   0.0000000   0.1285649   0.0000000), wk =   0.0200000
        k(    8) = (   0.0000000   0.1499923   0.0000000), wk =   0.0200000
        k(    9) = (   0.0000000   0.1714198   0.0000000), wk =   0.0200000
        k(   10) = (   0.0000000   0.1928473   0.0000000), wk =   0.0200000
        k(   11) = (   0.0000000   0.2142748   0.0000000), wk =   0.0200000
        k(   12) = (   0.0000000   0.2357023   0.0000000), wk =   0.0200000
        k(   13) = (   0.0000000   0.2571297   0.0000000), wk =   0.0200000
        k(   14) = (   0.0000000   0.2785572   0.0000000), wk =   0.0200000
        k(   15) = (   0.0000000   0.2999847   0.0000000), wk =   0.0200000
        k(   16) = (   0.0000000   0.3214122   0.0000000), wk =   0.0200000
        k(   17) = (   0.0000000   0.3428397   0.0000000), wk =   0.0200000
        k(   18) = (   0.0000000   0.3642671   0.0000000), wk =   0.0200000
        k(   19) = (   0.0000000   0.3856946   0.0000000), wk =   0.0200000
        k(   20) = (   0.0000000   0.4071221   0.0000000), wk =   0.0200000
        k(   21) = (   0.0000000   0.4285496   0.0000000), wk =   0.0200000
        k(   22) = (   0.0000000   0.4499770   0.0000000), wk =   0.0200000
        k(   23) = (   0.0000000   0.4714045   0.0000000), wk =   0.0200000
        k(   24) = (   0.0000000   0.4928320   0.0000000), wk =   0.0200000
        k(   25) = (   0.0000000   0.5142595   0.0000000), wk =   0.0200000
        k(   26) = (   0.0000000   0.5356870   0.0000000), wk =   0.0200000
        k(   27) = (   0.0000000   0.5571144   0.0000000), wk =   0.0200000
        k(   28) = (   0.0000000   0.5785419   0.0000000), wk =   0.0200000
        k(   29) = (   0.0000000   0.5999694   0.0000000), wk =   0.0200000
        k(   30) = (   0.0000000   0.6213969   0.0000000), wk =   0.0200000
        k(   31) = (   0.0000000   0.6428243   0.0000000), wk =   0.0200000
        k(   32) = (   0.0000000   0.6642518   0.0000000), wk =   0.0200000
        k(   33) = (   0.0000000   0.6856793   0.0000000), wk =   0.0200000
        k(   34) = (   0.0000000   0.7071068   0.0000000), wk =   0.0200000
        k(   35) = (   0.0207973   0.7071068  -0.0000000), wk =   0.0200000
        k(   36) = (   0.0415945   0.7071068   0.0000000), wk =   0.0200000
        k(   37) = (   0.0623918   0.7071068   0.0000000), wk =   0.0200000
        k(   38) = (   0.0831890   0.7071068   0.0000000), wk =   0.0200000
        k(   39) = (   0.1039863   0.7071068   0.0000000), wk =   0.0200000
        k(   40) = (   0.1247835   0.7071068   0.0000000), wk =   0.0200000
        k(   41) = (   0.1455808   0.7071068   0.0000000), wk =   0.0200000
        k(   42) = (   0.1663781   0.7071068   0.0000000), wk =   0.0200000
        k(   43) = (   0.1871753   0.7071068   0.0000000), wk =   0.0200000
        k(   44) = (   0.2079726   0.7071068   0.0000000), wk =   0.0200000
        k(   45) = (   0.2287698   0.7071068   0.0000000), wk =   0.0200000
        k(   46) = (   0.2495671   0.7071068  -0.0000000), wk =   0.0200000
        k(   47) = (   0.2703644   0.7071068   0.0000000), wk =   0.0200000
        k(   48) = (   0.2911616   0.7071068   0.0000000), wk =   0.0200000
        k(   49) = (   0.3119589   0.7071068   0.0000000), wk =   0.0200000
        k(   50) = (   0.3327561   0.7071068   0.0000000), wk =   0.0200000
        k(   51) = (   0.3535534   0.7071068   0.0000000), wk =   0.0200000
        k(   52) = (   0.3696240   0.6910362   0.0000000), wk =   0.0200000
        k(   53) = (   0.3856946   0.6749656   0.0000000), wk =   0.0200000
        k(   54) = (   0.4017652   0.6588950   0.0000000), wk =   0.0200000
        k(   55) = (   0.4178358   0.6428243   0.0000000), wk =   0.0200000
        k(   56) = (   0.4339064   0.6267537   0.0000000), wk =   0.0200000
        k(   57) = (   0.4499770   0.6106831   0.0000000), wk =   0.0200000
        k(   58) = (   0.4660477   0.5946125   0.0000000), wk =   0.0200000
        k(   59) = (   0.4821183   0.5785419   0.0000000), wk =   0.0200000
        k(   60) = (   0.4981889   0.5624713   0.0000000), wk =   0.0200000
        k(   61) = (   0.5142595   0.5464007   0.0000000), wk =   0.0200000
        k(   62) = (   0.5303301   0.5303301   0.0000000), wk =   0.0200000
        k(   63) = (   0.5163740   0.5163740   0.0000000), wk =   0.0200000
        k(   64) = (   0.5024180   0.5024180   0.0000000), wk =   0.0200000
        k(   65) = (   0.4884619   0.4884619   0.0000000), wk =   0.0200000
        k(   66) = (   0.4745059   0.4745059  -0.0000000), wk =   0.0200000
        k(   67) = (   0.4605498   0.4605498   0.0000000), wk =   0.0200000
        k(   68) = (   0.4465938   0.4465938   0.0000000), wk =   0.0200000
        k(   69) = (   0.4326377   0.4326377   0.0000000), wk =   0.0200000
        k(   70) = (   0.4186816   0.4186816   0.0000000), wk =   0.0200000
        k(   71) = (   0.4047256   0.4047256   0.0000000), wk =   0.0200000
        k(   72) = (   0.3907695   0.3907695  -0.0000000), wk =   0.0200000
        k(   73) = (   0.3768135   0.3768135  -0.0000000), wk =   0.0200000
        k(   74) = (   0.3628574   0.3628574   0.0000000), wk =   0.0200000
        k(   75) = (   0.3489014   0.3489014   0.0000000), wk =   0.0200000
        k(   76) = (   0.3349453   0.3349453   0.0000000), wk =   0.0200000
        k(   77) = (   0.3209893   0.3209893   0.0000000), wk =   0.0200000
        k(   78) = (   0.3070332   0.3070332  -0.0000000), wk =   0.0200000
        k(   79) = (   0.2930772   0.2930772  -0.0000000), wk =   0.0200000
        k(   80) = (   0.2791211   0.2791211   0.0000000), wk =   0.0200000
        k(   81) = (   0.2651650   0.2651650   0.0000000), wk =   0.0200000
        k(   82) = (   0.2512090   0.2512090   0.0000000), wk =   0.0200000
        k(   83) = (   0.2372529   0.2372529   0.0000000), wk =   0.0200000
        k(   84) = (   0.2232969   0.2232969   0.0000000), wk =   0.0200000
        k(   85) = (   0.2093408   0.2093408  -0.0000000), wk =   0.0200000
        k(   86) = (   0.1953848   0.1953848   0.0000000), wk =   0.0200000
        k(   87) = (   0.1814287   0.1814287   0.0000000), wk =   0.0200000
        k(   88) = (   0.1674727   0.1674727   0.0000000), wk =   0.0200000
        k(   89) = (   0.1535166   0.1535166   0.0000000), wk =   0.0200000
        k(   90) = (   0.1395605   0.1395605   0.0000000), wk =   0.0200000
        k(   91) = (   0.1256045   0.1256045  -0.0000000), wk =   0.0200000
        k(   92) = (   0.1116484   0.1116484  -0.0000000), wk =   0.0200000
        k(   93) = (   0.0976924   0.0976924   0.0000000), wk =   0.0200000
        k(   94) = (   0.0837363   0.0837363   0.0000000), wk =   0.0200000
        k(   95) = (   0.0697803   0.0697803   0.0000000), wk =   0.0200000
        k(   96) = (   0.0558242   0.0558242   0.0000000), wk =   0.0200000
        k(   97) = (   0.0418682   0.0418682  -0.0000000), wk =   0.0200000
        k(   98) = (   0.0279121   0.0279121  -0.0000000), wk =   0.0200000
        k(   99) = (   0.0139561   0.0139561   0.0000000), wk =   0.0200000
        k(  100) = (   0.0000000   0.0000000   0.0000000), wk =   0.0200000

                       cryst. coord.
        k(    1) = (   0.0000000   0.0000000   0.0000000), wk =   0.0200000
        k(    2) = (   0.0151515   0.0000000   0.0151515), wk =   0.0200000
        k(    3) = (   0.0303030   0.0000000   0.0303030), wk =   0.0200000
        k(    4) = (   0.0454545   0.0000000   0.0454545), wk =   0.0200000
        k(    5) = (   0.0606061   0.0000000   0.0606061), wk =   0.0200000
        k(    6) = (   0.0757576   0.0000000   0.0757576), wk =   0.0200000
        k(    7) = (   0.0909091   0.0000000   0.0909091), wk =   0.0200000
        k(    8) = (   0.1060606   0.0000000   0.1060606), wk =   0.0200000
        k(    9) = (   0.1212121   0.0000000   0.1212121), wk =   0.0200000
        k(   10) = (   0.1363636   0.0000000   0.1363636), wk =   0.0200000
        k(   11) = (   0.1515152   0.0000000   0.1515152), wk =   0.0200000
        k(   12) = (   0.1666667   0.0000000   0.1666667), wk =   0.0200000
        k(   13) = (   0.1818182   0.0000000   0.1818182), wk =   0.0200000
        k(   14) = (   0.1969697   0.0000000   0.1969697), wk =   0.0200000
        k(   15) = (   0.2121212   0.0000000   0.2121212), wk =   0.0200000
        k(   16) = (   0.2272727   0.0000000   0.2272727), wk =   0.0200000
        k(   17) = (   0.2424242   0.0000000   0.2424242), wk =   0.0200000
        k(   18) = (   0.2575758   0.0000000   0.2575758), wk =   0.0200000
        k(   19) = (   0.2727273   0.0000000   0.2727273), wk =   0.0200000
        k(   20) = (   0.2878788   0.0000000   0.2878788), wk =   0.0200000
        k(   21) = (   0.3030303   0.0000000   0.3030303), wk =   0.0200000
        k(   22) = (   0.3181818   0.0000000   0.3181818), wk =   0.0200000
        k(   23) = (   0.3333333   0.0000000   0.3333333), wk =   0.0200000
        k(   24) = (   0.3484848   0.0000000   0.3484848), wk =   0.0200000
        k(   25) = (   0.3636364   0.0000000   0.3636364), wk =   0.0200000
        k(   26) = (   0.3787879   0.0000000   0.3787879), wk =   0.0200000
        k(   27) = (   0.3939394   0.0000000   0.3939394), wk =   0.0200000
        k(   28) = (   0.4090909   0.0000000   0.4090909), wk =   0.0200000
        k(   29) = (   0.4242424   0.0000000   0.4242424), wk =   0.0200000
        k(   30) = (   0.4393939   0.0000000   0.4393939), wk =   0.0200000
        k(   31) = (   0.4545455   0.0000000   0.4545455), wk =   0.0200000
        k(   32) = (   0.4696970   0.0000000   0.4696970), wk =   0.0200000
        k(   33) = (   0.4848485   0.0000000   0.4848485), wk =   0.0200000
        k(   34) = (   0.5000000   0.0000000   0.5000000), wk =   0.0200000
        k(   35) = (   0.5000000   0.0147059   0.5147059), wk =   0.0200000
        k(   36) = (   0.5000000   0.0294118   0.5294118), wk =   0.0200000
        k(   37) = (   0.5000000   0.0441176   0.5441176), wk =   0.0200000
        k(   38) = (   0.5000000   0.0588235   0.5588235), wk =   0.0200000
        k(   39) = (   0.5000000   0.0735294   0.5735294), wk =   0.0200000
        k(   40) = (   0.5000000   0.0882353   0.5882353), wk =   0.0200000
        k(   41) = (   0.5000000   0.1029412   0.6029412), wk =   0.0200000
        k(   42) = (   0.5000000   0.1176471   0.6176471), wk =   0.0200000
        k(   43) = (   0.5000000   0.1323529   0.6323529), wk =   0.0200000
        k(   44) = (   0.5000000   0.1470588   0.6470588), wk =   0.0200000
        k(   45) = (   0.5000000   0.1617647   0.6617647), wk =   0.0200000
        k(   46) = (   0.5000000   0.1764706   0.6764706), wk =   0.0200000
        k(   47) = (   0.5000000   0.1911765   0.6911765), wk =   0.0200000
        k(   48) = (   0.5000000   0.2058824   0.7058824), wk =   0.0200000
        k(   49) = (   0.5000000   0.2205882   0.7205882), wk =   0.0200000
        k(   50) = (   0.5000000   0.2352941   0.7352941), wk =   0.0200000
        k(   51) = (   0.5000000   0.2500000   0.7500000), wk =   0.0200000
        k(   52) = (   0.4886364   0.2613636   0.7500000), wk =   0.0200000
        k(   53) = (   0.4772727   0.2727273   0.7500000), wk =   0.0200000
        k(   54) = (   0.4659091   0.2840909   0.7500000), wk =   0.0200000
        k(   55) = (   0.4545455   0.2954545   0.7500000), wk =   0.0200000
        k(   56) = (   0.4431818   0.3068182   0.7500000), wk =   0.0200000
        k(   57) = (   0.4318182   0.3181818   0.7500000), wk =   0.0200000
        k(   58) = (   0.4204545   0.3295455   0.7500000), wk =   0.0200000
        k(   59) = (   0.4090909   0.3409091   0.7500000), wk =   0.0200000
        k(   60) = (   0.3977273   0.3522727   0.7500000), wk =   0.0200000
        k(   61) = (   0.3863636   0.3636364   0.7500000), wk =   0.0200000
        k(   62) = (   0.3750000   0.3750000   0.7500000), wk =   0.0200000
        k(   63) = (   0.3651316   0.3651316   0.7302632), wk =   0.0200000
        k(   64) = (   0.3552632   0.3552632   0.7105263), wk =   0.0200000
        k(   65) = (   0.3453947   0.3453947   0.6907895), wk =   0.0200000
        k(   66) = (   0.3355263   0.3355263   0.6710526), wk =   0.0200000
        k(   67) = (   0.3256579   0.3256579   0.6513158), wk =   0.0200000
        k(   68) = (   0.3157895   0.3157895   0.6315789), wk =   0.0200000
        k(   69) = (   0.3059211   0.3059211   0.6118421), wk =   0.0200000
        k(   70) = (   0.2960526   0.2960526   0.5921053), wk =   0.0200000
        k(   71) = (   0.2861842   0.2861842   0.5723684), wk =   0.0200000
        k(   72) = (   0.2763158   0.2763158   0.5526316), wk =   0.0200000
        k(   73) = (   0.2664474   0.2664474   0.5328947), wk =   0.0200000
        k(   74) = (   0.2565789   0.2565789   0.5131579), wk =   0.0200000
        k(   75) = (   0.2467105   0.2467105   0.4934211), wk =   0.0200000
        k(   76) = (   0.2368421   0.2368421   0.4736842), wk =   0.0200000
        k(   77) = (   0.2269737   0.2269737   0.4539474), wk =   0.0200000
        k(   78) = (   0.2171053   0.2171053   0.4342105), wk =   0.0200000
        k(   79) = (   0.2072368   0.2072368   0.4144737), wk =   0.0200000
        k(   80) = (   0.1973684   0.1973684   0.3947368), wk =   0.0200000
        k(   81) = (   0.1875000   0.1875000   0.3750000), wk =   0.0200000
        k(   82) = (   0.1776316   0.1776316   0.3552632), wk =   0.0200000
        k(   83) = (   0.1677632   0.1677632   0.3355263), wk =   0.0200000
        k(   84) = (   0.1578947   0.1578947   0.3157895), wk =   0.0200000
        k(   85) = (   0.1480263   0.1480263   0.2960526), wk =   0.0200000
        k(   86) = (   0.1381579   0.1381579   0.2763158), wk =   0.0200000
        k(   87) = (   0.1282895   0.1282895   0.2565789), wk =   0.0200000
        k(   88) = (   0.1184211   0.1184211   0.2368421), wk =   0.0200000
        k(   89) = (   0.1085526   0.1085526   0.2171053), wk =   0.0200000
        k(   90) = (   0.0986842   0.0986842   0.1973684), wk =   0.0200000
        k(   91) = (   0.0888158   0.0888158   0.1776316), wk =   0.0200000
        k(   92) = (   0.0789474   0.0789474   0.1578947), wk =   0.0200000
        k(   93) = (   0.0690789   0.0690789   0.1381579), wk =   0.0200000
        k(   94) = (   0.0592105   0.0592105   0.1184211), wk =   0.0200000
        k(   95) = (   0.0493421   0.0493421   0.0986842), wk =   0.0200000
        k(   96) = (   0.0394737   0.0394737   0.0789474), wk =   0.0200000
        k(   97) = (   0.0296053   0.0296053   0.0592105), wk =   0.0200000
        k(   98) = (   0.0197368   0.0197368   0.0394737), wk =   0.0200000
        k(   99) = (   0.0098684   0.0098684   0.0197368), wk =   0.0200000
        k(  100) = (   0.0000000   0.0000000   0.0000000), wk =   0.0200000

     Dense  grid:     3287 G-vectors     FFT dimensions: (  24,  24,  24)

     Dynamical RAM for                 wfc:       0.01 MB

     Dynamical RAM for     wfc (w. buffer):       0.63 MB

     Dynamical RAM for           str. fact:       0.01 MB

     Dynamical RAM for           local pot:       0.00 MB

     Dynamical RAM for          nlocal pot:       0.06 MB

     Dynamical RAM for                qrad:       0.83 MB

     Dynamical RAM for          rho,v,vnew:       0.12 MB

     Dynamical RAM for               rhoin:       0.04 MB

     Dynamical RAM for            rho*nmix:       0.20 MB

     Dynamical RAM for           G-vectors:       0.05 MB

     Dynamical RAM for          h,s,v(r/c):       0.01 MB

     Dynamical RAM for          <psi|beta>:       0.00 MB

     Dynamical RAM for                 psi:       0.02 MB

     Dynamical RAM for                hpsi:       0.02 MB

     Dynamical RAM for                spsi:       0.02 MB

     Dynamical RAM for      wfcinit/wfcrot:       0.03 MB

     Dynamical RAM for           addusdens:       2.36 MB

     Estimated static dynamical RAM per process >       2.09 MB

     Estimated max dynamical RAM per process >       4.46 MB

     Estimated total dynamical RAM >      17.82 MB

     Check: negative core charge=   -0.000010

     Initial potential from superposition of free atoms

     starting charge    7.99888, renormalised to    8.00000
     Starting wfcs are    8 randomized atomic wfcs
     Checking if some PAW data can be deallocated... 

     total cpu time spent up to now is        0.8 secs

     Self-consistent Calculation

     iteration #  1     ecut=    20.00 Ry     beta= 0.70
     Davidson diagonalization with overlap
     ethr =  1.00E-02,  avg # of iterations =  2.0

     total cpu time spent up to now is        1.1 secs

     total energy              =     -93.25170340 Ry
     Harris-Foulkes estimate   =     -93.27394020 Ry
     estimated scf accuracy    <       0.08152246 Ry

     iteration #  2     ecut=    20.00 Ry     beta= 0.70
     Davidson diagonalization with overlap
     ethr =  1.02E-03,  avg # of iterations =  1.5

     total cpu time spent up to now is        1.3 secs

     total energy              =     -93.25812038 Ry
     Harris-Foulkes estimate   =     -93.25842279 Ry
     estimated scf accuracy    <       0.00384131 Ry

     iteration #  3     ecut=    20.00 Ry     beta= 0.70
     Davidson diagonalization with overlap
     ethr =  4.80E-05,  avg # of iterations =  2.6

     total cpu time spent up to now is        1.6 secs

     total energy              =     -93.25911686 Ry
     Harris-Foulkes estimate   =     -93.25916546 Ry
     estimated scf accuracy    <       0.00013458 Ry

     iteration #  4     ecut=    20.00 Ry     beta= 0.70
     Davidson diagonalization with overlap
     ethr =  1.68E-06,  avg # of iterations =  2.7

     total cpu time spent up to now is        1.9 secs

     total energy              =     -93.25916047 Ry
     Harris-Foulkes estimate   =     -93.25917087 Ry
     estimated scf accuracy    <       0.00002151 Ry

     iteration #  5     ecut=    20.00 Ry     beta= 0.70
     Davidson diagonalization with overlap
     ethr =  2.69E-07,  avg # of iterations =  2.2

     total cpu time spent up to now is        2.2 secs

     End of self-consistent calculation

          k = 0.0000 0.0000 0.0000 (   411 PWs)   bands (ev):

    -5.6277   6.3788   6.3789   6.3789

     occupation numbers 
     1.0000   1.0000   1.0000   1.0000

          k = 0.0000 0.0214 0.0000 (   411 PWs)   bands (ev):

    -5.6236   6.3511   6.3606   6.3606

     occupation numbers 
     1.0000   1.0000   1.0000   1.0000

          k = 0.0000 0.0429 0.0000 (   411 PWs)   bands (ev):

    -5.6116   6.2705   6.3080   6.3080

     occupation numbers 
     1.0000   1.0000   1.0000   1.0000

          k = 0.0000 0.0643 0.0000 (   411 PWs)   bands (ev):

    -5.5914   6.1440   6.2260   6.2260

     occupation numbers 
     1.0000   1.0000   1.0000   1.0000

          k = 0.0000 0.0857 0.0000 (   407 PWs)   bands (ev):

    -5.5632   5.9806   6.1214   6.1214

     occupation numbers 
     1.0000   1.0000   1.0000   1.0000

          k = 0.0000 0.1071 0.0000 (   407 PWs)   bands (ev):

    -5.5269   5.7886   6.0003   6.0004

     occupation numbers 
     1.0000   1.0000   1.0000   1.0000

          k = 0.0000 0.1286 0.0000 (   399 PWs)   bands (ev):

    -5.4826   5.5751   5.8683   5.8683

     occupation numbers 
     1.0000   1.0000   1.0000   1.0000

          k = 0.0000 0.1500 0.0000 (   399 PWs)   bands (ev):

    -5.4303   5.3458   5.7294   5.7294

     occupation numbers 
     1.0000   1.0000   1.0000   1.0000

          k = 0.0000 0.1714 0.0000 (   399 PWs)   bands (ev):

    -5.3702   5.1046   5.5861   5.5861

     occupation numbers 
     1.0000   1.0000   1.0000   1.0000

          k = 0.0000 0.1928 0.0000 (   399 PWs)   bands (ev):

    -5.3020   4.8547   5.4423   5.4423

     occupation numbers 
     1.0000   1.0000   1.0000   1.0000

          k = 0.0000 0.2143 0.0000 (   399 PWs)   bands (ev):

    -5.2260   4.5983   5.2992   5.2992

     occupation numbers 
     1.0000   1.0000   1.0000   1.0000

          k = 0.0000 0.2357 0.0000 (   399 PWs)   bands (ev):

    -5.1420   4.3370   5.1580   5.1580

     occupation numbers 
     1.0000   1.0000   1.0000   1.0000

          k = 0.0000 0.2571 0.0000 (   407 PWs)   bands (ev):

    -5.0506   4.0716   5.0188   5.0188

     occupation numbers 
     1.0000   1.0000   1.0000   1.0000

          k = 0.0000 0.2786 0.0000 (   407 PWs)   bands (ev):

    -4.9510   3.8038   4.8845   4.8845

     occupation numbers 
     1.0000   1.0000   1.0000   1.0000

          k = 0.0000 0.3000 0.0000 (   415 PWs)   bands (ev):

    -4.8439   3.5334   4.7541   4.7541

     occupation numbers 
     1.0000   1.0000   1.0000   1.0000

          k = 0.0000 0.3214 0.0000 (   415 PWs)   bands (ev):

    -4.7291   3.2620   4.6291   4.6291

     occupation numbers 
     1.0000   1.0000   1.0000   1.0000

          k = 0.0000 0.3428 0.0000 (   415 PWs)   bands (ev):

    -4.6066   2.9895   4.5095   4.5095

     occupation numbers 
     1.0000   1.0000   1.0000   1.0000

          k = 0.0000 0.3643 0.0000 (   415 PWs)   bands (ev):

    -4.4766   2.7163   4.3956   4.3956

     occupation numbers 
     1.0000   1.0000   1.0000   1.0000

          k = 0.0000 0.3857 0.0000 (   415 PWs)   bands (ev):

    -4.3392   2.4429   4.2876   4.2876

     occupation numbers 
     1.0000   1.0000   1.0000   1.0000

          k = 0.0000 0.4071 0.0000 (   415 PWs)   bands (ev):

    -4.1945   2.1695   4.1858   4.1858

     occupation numbers 
     1.0000   1.0000   1.0000   1.0000

          k = 0.0000 0.4285 0.0000 (   423 PWs)   bands (ev):

    -4.0425   1.8965   4.0903   4.0903

     occupation numbers 
     1.0000   1.0000   1.0000   1.0000

          k = 0.0000 0.4500 0.0000 (   419 PWs)   bands (ev):

    -3.8831   1.6244   4.0016   4.0016

     occupation numbers 
     1.0000   1.0000   1.0000   1.0000

          k = 0.0000 0.4714 0.0000 (   419 PWs)   bands (ev):

    -3.7170   1.3532   3.9194   3.9194

     occupation numbers 
     1.0000   1.0000   1.0000   1.0000

          k = 0.0000 0.4928 0.0000 (   420 PWs)   bands (ev):

    -3.5439   1.0833   3.8441   3.8441

     occupation numbers 
     1.0000   1.0000   1.0000   1.0000

          k = 0.0000 0.5143 0.0000 (   420 PWs)   bands (ev):

    -3.3641   0.8152   3.7757   3.7757

     occupation numbers 
     1.0000   1.0000   1.0000   1.0000

          k = 0.0000 0.5357 0.0000 (   416 PWs)   bands (ev):

    -3.1776   0.5492   3.7143   3.7143

     occupation numbers 
     1.0000   1.0000   1.0000   1.0000

          k = 0.0000 0.5571 0.0000 (   416 PWs)   bands (ev):

    -2.9846   0.2855   3.6600   3.6600

     occupation numbers 
     1.0000   1.0000   1.0000   1.0000

          k = 0.0000 0.5785 0.0000 (   416 PWs)   bands (ev):

    -2.7853   0.0245   3.6128   3.6128

     occupation numbers 
     1.0000   1.0000   1.0000   1.0000

          k = 0.0000 0.6000 0.0000 (   412 PWs)   bands (ev):

    -2.5798  -0.2337   3.5727   3.5727

     occupation numbers 
     1.0000   1.0000   1.0000   1.0000

          k = 0.0000 0.6214 0.0000 (   412 PWs)   bands (ev):

    -2.3684  -0.4882   3.5399   3.5399

     occupation numbers 
     1.0000   1.0000   1.0000   1.0000

          k = 0.0000 0.6428 0.0000 (   412 PWs)   bands (ev):

    -2.1512  -0.7391   3.5143   3.5143

     occupation numbers 
     1.0000   1.0000   1.0000   1.0000

          k = 0.0000 0.6643 0.0000 (   412 PWs)   bands (ev):

    -1.9284  -0.9859   3.4961   3.4961

     occupation numbers 
     1.0000   1.0000   1.0000   1.0000

          k = 0.0000 0.6857 0.0000 (   408 PWs)   bands (ev):

    -1.7002  -1.2285   3.4852   3.4852

     occupation numbers 
     1.0000   1.0000   1.0000   1.0000

          k = 0.0000 0.7071 0.0000 (   412 PWs)   bands (ev):

    -1.4670  -1.4670   3.4815   3.4815

     occupation numbers 
     1.0000   1.0000   1.0000   1.0000

          k = 0.0208 0.7071-0.0000 (   408 PWs)   bands (ev):

    -1.4657  -1.4657   3.4697   3.4697

     occupation numbers 
     1.0000   1.0000   1.0000   1.0000

          k = 0.0416 0.7071 0.0000 (   408 PWs)   bands (ev):

    -1.4618  -1.4617   3.4349   3.4349

     occupation numbers 
     1.0000   1.0000   1.0000   1.0000

          k = 0.0624 0.7071 0.0000 (   410 PWs)   bands (ev):

    -1.4552  -1.4552   3.3801   3.3801

     occupation numbers 
     1.0000   1.0000   1.0000   1.0000

          k = 0.0832 0.7071 0.0000 (   414 PWs)   bands (ev):

    -1.4466  -1.4466   3.3092   3.3092

     occupation numbers 
     1.0000   1.0000   1.0000   1.0000

          k = 0.1040 0.7071 0.0000 (   414 PWs)   bands (ev):

    -1.4358  -1.4358   3.2267   3.2267

     occupation numbers 
     1.0000   1.0000   1.0000   1.0000

          k = 0.1248 0.7071 0.0000 (   414 PWs)   bands (ev):

    -1.4233  -1.4233   3.1367   3.1367

     occupation numbers 
     1.0000   1.0000   1.0000   1.0000

          k = 0.1456 0.7071 0.0000 (   414 PWs)   bands (ev):

    -1.4093  -1.4093   3.0433   3.0433

     occupation numbers 
     1.0000   1.0000   1.0000   1.0000

          k = 0.1664 0.7071 0.0000 (   412 PWs)   bands (ev):

    -1.3943  -1.3943   2.9497   2.9498

     occupation numbers 
     1.0000   1.0000   1.0000   1.0000

          k = 0.1872 0.7071 0.0000 (   412 PWs)   bands (ev):

    -1.3787  -1.3787   2.8590   2.8590

     occupation numbers 
     1.0000   1.0000   1.0000   1.0000

          k = 0.2080 0.7071 0.0000 (   412 PWs)   bands (ev):

    -1.3632  -1.3632   2.7736   2.7736

     occupation numbers 
     1.0000   1.0000   1.0000   1.0000

          k = 0.2288 0.7071 0.0000 (   412 PWs)   bands (ev):

    -1.3481  -1.3481   2.6955   2.6955

     occupation numbers 
     1.0000   1.0000   1.0000   1.0000

          k = 0.2496 0.7071-0.0000 (   404 PWs)   bands (ev):

    -1.3341  -1.3341   2.6264   2.6264

     occupation numbers 
     1.0000   1.0000   1.0000   1.0000

          k = 0.2704 0.7071 0.0000 (   404 PWs)   bands (ev):

    -1.3218  -1.3218   2.5680   2.5680

     occupation numbers 
     1.0000   1.0000   1.0000   1.0000

          k = 0.2912 0.7071 0.0000 (   404 PWs)   bands (ev):

    -1.3116  -1.3116   2.5213   2.5213

     occupation numbers 
     1.0000   1.0000   1.0000   1.0000

          k = 0.3120 0.7071 0.0000 (   408 PWs)   bands (ev):

    -1.3041  -1.3041   2.4870   2.4870

     occupation numbers 
     1.0000   1.0000   1.0000   1.0000

          k = 0.3328 0.7071 0.0000 (   408 PWs)   bands (ev):

    -1.2994  -1.2994   2.4663   2.4663

     occupation numbers 
     1.0000   1.0000   1.0000   1.0000

          k = 0.3536 0.7071 0.0000 (   412 PWs)   bands (ev):

    -1.2979  -1.2979   2.4594   2.4594

     occupation numbers 
     1.0000   1.0000   1.0000   1.0000

          k = 0.3696 0.6910 0.0000 (   408 PWs)   bands (ev):

    -1.3979  -1.2010   2.3830   2.5524

     occupation numbers 
     1.0000   1.0000   1.0000   1.0000

          k = 0.3857 0.6750 0.0000 (   404 PWs)   bands (ev):

    -1.4884  -1.1199   2.3130   2.6709

     occupation numbers 
     1.0000   1.0000   1.0000   1.0000

          k = 0.4018 0.6589 0.0000 (   404 PWs)   bands (ev):

    -1.5696  -1.0540   2.2497   2.8121

     occupation numbers 
     1.0000   1.0000   1.0000   1.0000

          k = 0.4178 0.6428 0.0000 (   404 PWs)   bands (ev):

    -1.6414  -1.0017   2.1933   2.9721

     occupation numbers 
     1.0000   1.0000   1.0000   1.0000

          k = 0.4339 0.6268 0.0000 (   404 PWs)   bands (ev):

    -1.7037  -0.9614   2.1440   3.1454

     occupation numbers 
     1.0000   1.0000   1.0000   1.0000

          k = 0.4500 0.6107 0.0000 (   410 PWs)   bands (ev):

    -1.7564  -0.9312   2.1020   3.3246

     occupation numbers 
     1.0000   1.0000   1.0000   1.0000

          k = 0.4660 0.5946 0.0000 (   410 PWs)   bands (ev):

    -1.7996  -0.9091   2.0675   3.5007

     occupation numbers 
     1.0000   1.0000   1.0000   1.0000

          k = 0.4821 0.5785 0.0000 (   410 PWs)   bands (ev):

    -1.8332  -0.8937   2.0406   3.6620

     occupation numbers 
     1.0000   1.0000   1.0000   1.0000

          k = 0.4982 0.5625 0.0000 (   409 PWs)   bands (ev):

    -1.8572  -0.8836   2.0213   3.7945

     occupation numbers 
     1.0000   1.0000   1.0000   1.0000

          k = 0.5143 0.5464 0.0000 (   408 PWs)   bands (ev):

    -1.8717  -0.8779   2.0096   3.8826

     occupation numbers 
     1.0000   1.0000   1.0000   1.0000

          k = 0.5303 0.5303 0.0000 (   409 PWs)   bands (ev):

    -1.8765  -0.8761   2.0057   3.9136

     occupation numbers 
     1.0000   1.0000   1.0000   1.0000

          k = 0.5164 0.5164 0.0000 (   403 PWs)   bands (ev):

    -1.9707  -0.7794   1.9463   3.9821

     occupation numbers 
     1.0000   1.0000   1.0000   1.0000

          k = 0.5024 0.5024 0.0000 (   403 PWs)   bands (ev):

    -2.0761  -0.6756   1.9078   4.0549

     occupation numbers 
     1.0000   1.0000   1.0000   1.0000

          k = 0.4885 0.4885 0.0000 (   403 PWs)   bands (ev):

    -2.1919  -0.5646   1.8899   4.1317

     occupation numbers 
     1.0000   1.0000   1.0000   1.0000

          k = 0.4745 0.4745-0.0000 (   403 PWs)   bands (ev):

    -2.3168  -0.4464   1.8918   4.2125

     occupation numbers 
     1.0000   1.0000   1.0000   1.0000

          k = 0.4605 0.4605 0.0000 (   403 PWs)   bands (ev):

    -2.4494  -0.3210   1.9125   4.2969

     occupation numbers 
     1.0000   1.0000   1.0000   1.0000

          k = 0.4466 0.4466 0.0000 (   403 PWs)   bands (ev):

    -2.5884  -0.1886   1.9507   4.3846

     occupation numbers 
     1.0000   1.0000   1.0000   1.0000

          k = 0.4326 0.4326 0.0000 (   403 PWs)   bands (ev):

    -2.7321  -0.0491   2.0053   4.4753

     occupation numbers 
     1.0000   1.0000   1.0000   1.0000

          k = 0.4187 0.4187 0.0000 (   407 PWs)   bands (ev):

    -2.8794   0.0974   2.0748   4.5687

     occupation numbers 
     1.0000   1.0000   1.0000   1.0000

          k = 0.4047 0.4047 0.0000 (   407 PWs)   bands (ev):

    -3.0285   0.2509   2.1581   4.6643

     occupation numbers 
     1.0000   1.0000   1.0000   1.0000

          k = 0.3908 0.3908-0.0000 (   407 PWs)   bands (ev):

    -3.1785   0.4114   2.2540   4.7617

     occupation numbers 
     1.0000   1.0000   1.0000   1.0000

          k = 0.3768 0.3768-0.0000 (   411 PWs)   bands (ev):

    -3.3283   0.5787   2.3615   4.8604

     occupation numbers 
     1.0000   1.0000   1.0000   1.0000

          k = 0.3629 0.3629 0.0000 (   407 PWs)   bands (ev):

    -3.4770   0.7529   2.4797   4.9605

     occupation numbers 
     1.0000   1.0000   1.0000   1.0000

          k = 0.3489 0.3489 0.0000 (   407 PWs)   bands (ev):

    -3.6237   0.9338   2.6076   5.0603

     occupation numbers 
     1.0000   1.0000   1.0000   1.0000

          k = 0.3349 0.3349 0.0000 (   407 PWs)   bands (ev):

    -3.7678   1.1214   2.7445   5.1598

     occupation numbers 
     1.0000   1.0000   1.0000   1.0000

          k = 0.3210 0.3210 0.0000 (   409 PWs)   bands (ev):

    -3.9088   1.3156   2.8897   5.2583

     occupation numbers 
     1.0000   1.0000   1.0000   1.0000

          k = 0.3070 0.3070-0.0000 (   409 PWs)   bands (ev):

    -4.0460   1.5163   3.0425   5.3553

     occupation numbers 
     1.0000   1.0000   1.0000   1.0000

          k = 0.2931 0.2931-0.0000 (   409 PWs)   bands (ev):

    -4.1791   1.7234   3.2022   5.4502

     occupation numbers 
     1.0000   1.0000   1.0000   1.0000

          k = 0.2791 0.2791 0.0000 (   409 PWs)   bands (ev):

    -4.3076   1.9368   3.3681   5.5422

     occupation numbers 
     1.0000   1.0000   1.0000   1.0000

          k = 0.2652 0.2652 0.0000 (   409 PWs)   bands (ev):

    -4.4312   2.1563   3.5397   5.6307

     occupation numbers 
     1.0000   1.0000   1.0000   1.0000

          k = 0.2512 0.2512 0.0000 (   397 PWs)   bands (ev):

    -4.5495   2.3824   3.7165   5.7160

     occupation numbers 
     1.0000   1.0000   1.0000   1.0000

          k = 0.2373 0.2373 0.0000 (   397 PWs)   bands (ev):

    -4.6626   2.6137   3.8973   5.7961

     occupation numbers 
     1.0000   1.0000   1.0000   1.0000

          k = 0.2233 0.2233 0.0000 (   399 PWs)   bands (ev):

    -4.7702   2.8503   4.0817   5.8712

     occupation numbers 
     1.0000   1.0000   1.0000   1.0000

          k = 0.2093 0.2093-0.0000 (   399 PWs)   bands (ev):

    -4.8718   3.0924   4.2688   5.9410

     occupation numbers 
     1.0000   1.0000   1.0000   1.0000

          k = 0.1954 0.1954 0.0000 (   395 PWs)   bands (ev):

    -4.9674   3.3396   4.4582   6.0054

     occupation numbers 
     1.0000   1.0000   1.0000   1.0000

          k = 0.1814 0.1814 0.0000 (   399 PWs)   bands (ev):

    -5.0572   3.5909   4.6481   6.0635

     occupation numbers 
     1.0000   1.0000   1.0000   1.0000

          k = 0.1675 0.1675 0.0000 (   399 PWs)   bands (ev):

    -5.1405   3.8464   4.8378   6.1163

     occupation numbers 
     1.0000   1.0000   1.0000   1.0000

          k = 0.1535 0.1535 0.0000 (   395 PWs)   bands (ev):

    -5.2174   4.1060   5.0262   6.1636

     occupation numbers 
     1.0000   1.0000   1.0000   1.0000

          k = 0.1396 0.1396 0.0000 (   395 PWs)   bands (ev):

    -5.2880   4.3671   5.2113   6.2052

     occupation numbers 
     1.0000   1.0000   1.0000   1.0000

          k = 0.1256 0.1256-0.0000 (   403 PWs)   bands (ev):

    -5.3523   4.6292   5.3918   6.2413

     occupation numbers 
     1.0000   1.0000   1.0000   1.0000

          k = 0.1116 0.1116-0.0000 (   403 PWs)   bands (ev):

    -5.4097   4.8919   5.5659   6.2729

     occupation numbers 
     1.0000   1.0000   1.0000   1.0000

          k = 0.0977 0.0977 0.0000 (   407 PWs)   bands (ev):

    -5.4607   5.1512   5.7308   6.2995

     occupation numbers 
     1.0000   1.0000   1.0000   1.0000

          k = 0.0837 0.0837 0.0000 (   403 PWs)   bands (ev):

    -5.5048   5.4050   5.8852   6.3217

     occupation numbers 
     1.0000   1.0000   1.0000   1.0000

          k = 0.0698 0.0698 0.0000 (   409 PWs)   bands (ev):

    -5.5423   5.6482   6.0237   6.3399

     occupation numbers 
     1.0000   1.0000   1.0000   1.0000

          k = 0.0558 0.0558 0.0000 (   409 PWs)   bands (ev):

    -5.5730   5.8745   6.1443   6.3543

     occupation numbers 
     1.0000   1.0000   1.0000   1.0000

          k = 0.0419 0.0419-0.0000 (   411 PWs)   bands (ev):

    -5.5969   6.0746   6.2434   6.3652

     occupation numbers 
     1.0000   1.0000   1.0000   1.0000

          k = 0.0279 0.0279-0.0000 (   411 PWs)   bands (ev):

    -5.6140   6.2354   6.3175   6.3728

     occupation numbers 
     1.0000   1.0000   1.0000   1.0000

          k = 0.0140 0.0140 0.0000 (   411 PWs)   bands (ev):

    -5.6243   6.3415   6.3633   6.3774

     occupation numbers 
     1.0000   1.0000   1.0000   1.0000

          k = 0.0000 0.0000 0.0000 (   411 PWs)   bands (ev):

    -5.6277   6.3788   6.3788   6.3789

     occupation numbers 
     1.0000   1.0000   1.0000   1.0000

     highest occupied level (ev):     6.3789

!    total energy              =     -93.25916448 Ry
     Harris-Foulkes estimate   =     -93.25916470 Ry
     estimated scf accuracy    <       0.00000052 Ry

     total all-electron energy =     -1159.950894 Ry

     The total energy is the sum of the following terms:

     one-electron contribution =       5.89068817 Ry
     hartree contribution      =       1.18740683 Ry
     xc contribution           =     -12.35172410 Ry
     ewald contribution        =     -16.79893901 Ry
     one-center paw contrib.   =     -71.18659638 Ry
      -> PAW hartree energy AE =       3.14055078 Ry
      -> PAW hartree energy PS =      -3.12915882 Ry
      -> PAW xc energy AE      =     -40.93841011 Ry
      -> PAW xc energy PS      =       5.33371996 Ry
      -> total E_H with PAW    =       1.19879879 Ry
      -> total E_XC with PAW   =     -47.95641424 Ry

     convergence has been achieved in   5 iterations

     Writing output data file pwscf.save/

     init_run     :      0.25s CPU      0.25s WALL (       1 calls)
     electrons    :      1.35s CPU      1.41s WALL (       1 calls)

     Called by init_run:
     wfcinit      :      0.09s CPU      0.09s WALL (       1 calls)
     wfcinit:atom :      0.00s CPU      0.00s WALL (     100 calls)
     wfcinit:wfcr :      0.08s CPU      0.08s WALL (     100 calls)
     potinit      :      0.10s CPU      0.10s WALL (       1 calls)
     hinit0       :      0.05s CPU      0.05s WALL (       1 calls)

     Called by electrons:
     c_bands      :      0.72s CPU      0.75s WALL (       5 calls)
     sum_band     :      0.14s CPU      0.14s WALL (       5 calls)
     v_of_rho     :      0.01s CPU      0.01s WALL (       6 calls)
     v_h          :      0.00s CPU      0.00s WALL (       6 calls)
     v_xc         :      0.01s CPU      0.01s WALL (       6 calls)
     newd         :      0.01s CPU      0.01s WALL (       6 calls)
     PAW_pot      :      0.56s CPU      0.59s WALL (       6 calls)
     mix_rho      :      0.00s CPU      0.00s WALL (       5 calls)

     Called by c_bands:
     init_us_2    :      0.03s CPU      0.04s WALL (    1100 calls)
     cegterg      :      0.61s CPU      0.64s WALL (     500 calls)

     Called by sum_band:
     sum_band:bec :      0.00s CPU      0.00s WALL (     500 calls)
     addusdens    :      0.01s CPU      0.01s WALL (       5 calls)

     Called by *egterg:
     h_psi        :      0.55s CPU      0.57s WALL (    1706 calls)
     s_psi        :      0.04s CPU      0.04s WALL (    1706 calls)
     g_psi        :      0.00s CPU      0.00s WALL (    1106 calls)
     cdiaghg      :      0.04s CPU      0.05s WALL (    1606 calls)
     cegterg:over :      0.02s CPU      0.02s WALL (    1106 calls)
     cegterg:upda :      0.01s CPU      0.01s WALL (    1106 calls)
     cegterg:last :      0.00s CPU      0.00s WALL (     501 calls)

     Called by h_psi:
     h_psi:pot    :      0.54s CPU      0.56s WALL (    1706 calls)
     h_psi:calbec :      0.05s CPU      0.05s WALL (    1706 calls)
     vloc_psi     :      0.45s CPU      0.47s WALL (    1706 calls)
     add_vuspsi   :      0.04s CPU      0.04s WALL (    1706 calls)

     General routines
     calbec       :      0.06s CPU      0.07s WALL (    2206 calls)
     fft          :      0.01s CPU      0.01s WALL (      66 calls)
     ffts         :      0.00s CPU      0.00s WALL (       5 calls)
     fftw         :      0.47s CPU      0.49s WALL (   14806 calls)

     Parallel routines
     fft_scatt_xy :      0.06s CPU      0.06s WALL (   14877 calls)
     fft_scatt_yz :      0.13s CPU      0.14s WALL (   14877 calls)

     PAW routines
     PAW_pot      :      0.56s CPU      0.59s WALL (       6 calls)
     PAW_symme    :      0.00s CPU      0.00s WALL (      11 calls)

     PWSCF        :      2.13s CPU      2.20s WALL


   This run was terminated on:  23:53:31  17Oct2020            

=------------------------------------------------------------------------------=
   JOB DONE.
=------------------------------------------------------------------------------=
