
     Program PWSCF v.6.4.1 starts on 17Oct2020 at 14:26:37 

     This program is part of the open-source Quantum ESPRESSO suite
     for quantum simulation of materials; please cite
         "P. Giannozzi et al., J. Phys.:Condens. Matter 21 395502 (2009);
         "P. Giannozzi et al., J. Phys.:Condens. Matter 29 465901 (2017);
          URL http://www.quantum-espresso.org", 
     in publications or presentations arising from this work. More details at
     http://www.quantum-espresso.org/quote

     Parallel version (MPI), running on     4 processors

     MPI processes distributed on     1 nodes
     R & G space division:  proc/nbgrp/npool/nimage =       4
     Reading input from initial.pwi
Warning: card &CELL ignored
Warning: card / ignored

     Current dimensions of program PWSCF are:
     Max number of different atomic species (ntypx) = 10
     Max number of k-points (npk) =  40000
     Max angular momentum in pseudopotentials (lmaxx) =  3

     Subspace diagonalization in iterative solution of the eigenvalue problem:
     a serial algorithm will be used

     Message from routine setup:
     DEPRECATED: symmetry with ibrav=0, use correct ibrav instead

     Parallelization info
     --------------------
     sticks:   dense  smooth     PW     G-vecs:    dense   smooth      PW
     Min         425     339     84                 8541     6100     764
     Max         427     340     85                 8542     6101     765
     Sum        1703    1359    337                34165    24401    3057



     bravais-lattice index     =            0
     lattice parameter (alat)  =      22.6767  a.u.
     unit-cell volume          =    2024.5004 (a.u.)^3
     number of atoms/cell      =            3
     number of atomic types    =            1
     number of electrons       =         3.00
     number of Kohn-Sham states=            6
     kinetic-energy cutoff     =      20.0000  Ry
     charge density cutoff     =     100.0000  Ry
     convergence threshold     =      1.0E-08
     mixing beta               =       0.3000
     number of iterations used =            8  plain     mixing
     Exchange-correlation      = PBE ( 1  4  3  4 0 0)
     nstep                     =           50


     celldm(1)=  22.676714  celldm(2)=   0.000000  celldm(3)=   0.000000
     celldm(4)=   0.000000  celldm(5)=   0.000000  celldm(6)=   0.000000

     crystal axes: (cart. coord. in units of alat)
               a(1) = (   1.000000   0.000000   0.000000 )  
               a(2) = (   0.000000   0.416667   0.000000 )  
               a(3) = (   0.000000   0.000000   0.416667 )  

     reciprocal axes: (cart. coord. in units 2 pi/alat)
               b(1) = (  1.000000  0.000000  0.000000 )  
               b(2) = (  0.000000  2.400000  0.000000 )  
               b(3) = (  0.000000  0.000000  2.400000 )  


     PseudoPot. # 1 for H  read from file:
     /home/xing/espresso/pseudo/H.pbe-rrkjus_psl.1.0.0.UPF
     MD5 check sum: 3f4114867bd07edc7f1424d066fc1888
     Pseudo is Ultrasoft, Zval =  1.0
     Generated using "atomic" code by A. Dal Corso v.6.3MaX
     Using radial grid of  929 points,  2 beta functions with: 
                l(1) =   0
                l(2) =   0
     Q(r) pseudized with 0 coefficients 


     atomic species   valence    mass     pseudopotential
        H              1.00     1.00800     H ( 1.00)

     Starting magnetic structure 
     atomic species   magnetization
        H            0.500

      8 Sym. Ops. (no inversion) found


                                    s                        frac. trans.

      isym =  1     identity                                     

 cryst.   s( 1) = (     1          0          0      )
                  (     0          1          0      )
                  (     0          0          1      )

 cart.    s( 1) = (  1.0000000  0.0000000  0.0000000 )
                  (  0.0000000  1.0000000  0.0000000 )
                  (  0.0000000  0.0000000  1.0000000 )


      isym =  2     180 deg rotation - cart. axis [1,0,0]        

 cryst.   s( 2) = (     1          0          0      )
                  (     0         -1          0      )
                  (     0          0         -1      )

 cart.    s( 2) = (  1.0000000  0.0000000  0.0000000 )
                  (  0.0000000 -1.0000000  0.0000000 )
                  (  0.0000000  0.0000000 -1.0000000 )


      isym =  3      90 deg rotation - cart. axis [-1,0,0]       

 cryst.   s( 3) = (     1          0          0      )
                  (     0          0         -1      )
                  (     0          1          0      )

 cart.    s( 3) = (  1.0000000  0.0000000  0.0000000 )
                  (  0.0000000  0.0000000  1.0000000 )
                  (  0.0000000 -1.0000000  0.0000000 )


      isym =  4      90 deg rotation - cart. axis [1,0,0]        

 cryst.   s( 4) = (     1          0          0      )
                  (     0          0          1      )
                  (     0         -1          0      )

 cart.    s( 4) = (  1.0000000  0.0000000  0.0000000 )
                  (  0.0000000  0.0000000 -1.0000000 )
                  (  0.0000000  1.0000000  0.0000000 )


      isym =  5     inv. 180 deg rotation - cart. axis [0,0,1]   

 cryst.   s( 5) = (     1          0          0      )
                  (     0          1          0      )
                  (     0          0         -1      )

 cart.    s( 5) = (  1.0000000  0.0000000  0.0000000 )
                  (  0.0000000  1.0000000  0.0000000 )
                  (  0.0000000  0.0000000 -1.0000000 )


      isym =  6     inv. 180 deg rotation - cart. axis [0,1,0]   

 cryst.   s( 6) = (     1          0          0      )
                  (     0         -1          0      )
                  (     0          0          1      )

 cart.    s( 6) = (  1.0000000  0.0000000  0.0000000 )
                  (  0.0000000 -1.0000000  0.0000000 )
                  (  0.0000000  0.0000000  1.0000000 )


      isym =  7     inv. 180 deg rotation - cart. axis [0,1,1]   

 cryst.   s( 7) = (     1          0          0      )
                  (     0          0         -1      )
                  (     0         -1          0      )

 cart.    s( 7) = (  1.0000000  0.0000000  0.0000000 )
                  (  0.0000000  0.0000000 -1.0000000 )
                  (  0.0000000 -1.0000000  0.0000000 )


      isym =  8     inv. 180 deg rotation - cart. axis [0,1,-1]  

 cryst.   s( 8) = (     1          0          0      )
                  (     0          0          1      )
                  (     0          1          0      )

 cart.    s( 8) = (  1.0000000  0.0000000  0.0000000 )
                  (  0.0000000  0.0000000  1.0000000 )
                  (  0.0000000  1.0000000  0.0000000 )


   Cartesian axes

     site n.     atom                  positions (alat units)
         1           H   tau(   1) = (   0.0000000   0.0000000   0.0000000  )
         2           H   tau(   2) = (   0.0666667   0.0000000   0.0000000  )
         3           H   tau(   3) = (   0.2500000   0.0000000   0.0000000  )

   Crystallographic axes

     site n.     atom                  positions (cryst. coord.)
         1           H   tau(   1) = (  0.0000000  0.0000000  0.0000000  )
         2           H   tau(   2) = (  0.0666667  0.0000000  0.0000000  )
         3           H   tau(   3) = (  0.2500000  0.0000000  0.0000000  )

     number of k points=     1  gaussian smearing, width (Ry)=  0.0300
                       cart. coord. in units 2pi/alat
        k(    1) = (   0.0000000   0.0000000   0.0000000), wk =   1.0000000

                       cryst. coord.
        k(    1) = (   0.0000000   0.0000000   0.0000000), wk =   1.0000000

     Dense  grid:    34165 G-vectors     FFT dimensions: (  75,  32,  32)

     Smooth grid:    24401 G-vectors     FFT dimensions: (  72,  27,  27)

     Dynamical RAM for                 wfc:       0.07 MB

     Dynamical RAM for     wfc (w. buffer):       0.21 MB

     Dynamical RAM for           str. fact:       0.13 MB

     Dynamical RAM for           local pot:       0.00 MB

     Dynamical RAM for          nlocal pot:       0.07 MB

     Dynamical RAM for                qrad:       0.08 MB

     Dynamical RAM for          rho,v,vnew:       1.66 MB

     Dynamical RAM for               rhoin:       0.55 MB

     Dynamical RAM for            rho*nmix:       4.17 MB

     Dynamical RAM for           G-vectors:       0.54 MB

     Dynamical RAM for          h,s,v(r/c):       0.03 MB

     Dynamical RAM for          <psi|beta>:       0.00 MB

     Dynamical RAM for                 psi:       0.28 MB

     Dynamical RAM for                hpsi:       0.28 MB

     Dynamical RAM for                spsi:       0.28 MB

     Dynamical RAM for      wfcinit/wfcrot:       0.14 MB

     Dynamical RAM for           addusdens:       1.30 MB

     Dynamical RAM for          addusforce:       1.83 MB

     Estimated static dynamical RAM per process >       8.55 MB

     Estimated max dynamical RAM per process >      10.38 MB

     Estimated total dynamical RAM >      41.51 MB
     Generating pointlists ...
     new r_m :   0.0275 (alat units)  0.6236 (a.u.) for type    1

     Initial potential from superposition of free atoms

     starting charge    2.99997, renormalised to    3.00000

     negative rho (up, down):  4.316E-03 0.000E+00
     Starting wfcs are    3 randomized atomic wfcs +    3 random wfcs

     total cpu time spent up to now is        1.0 secs

     Self-consistent Calculation

     iteration #  1     ecut=    20.00 Ry     beta= 0.30
     Davidson diagonalization with overlap
     ethr =  1.00E-02,  avg # of iterations =  7.0

     negative rho (up, down):  5.325E-03 6.167E-02

     total cpu time spent up to now is        1.1 secs

     total energy              =      -3.28954425 Ry
     Harris-Foulkes estimate   =      -3.28241074 Ry
     estimated scf accuracy    <       0.09777832 Ry

     total magnetization       =     1.00 Bohr mag/cell
     absolute magnetization    =     1.03 Bohr mag/cell

     iteration #  2     ecut=    20.00 Ry     beta= 0.30
     Davidson diagonalization with overlap
     ethr =  3.26E-03,  avg # of iterations =  1.0

     negative rho (up, down):  7.064E-03 1.711E-01

     total cpu time spent up to now is        1.1 secs

     total energy              =      -3.30252410 Ry
     Harris-Foulkes estimate   =      -3.29112755 Ry
     estimated scf accuracy    <       0.03874639 Ry

     total magnetization       =     1.00 Bohr mag/cell
     absolute magnetization    =     1.02 Bohr mag/cell

     iteration #  3     ecut=    20.00 Ry     beta= 0.30
     Davidson diagonalization with overlap
     ethr =  1.29E-03,  avg # of iterations =  1.5

     negative rho (up, down):  7.127E-03 1.727E-01

     total cpu time spent up to now is        1.2 secs

     total energy              =      -3.30917387 Ry
     Harris-Foulkes estimate   =      -3.30756398 Ry
     estimated scf accuracy    <       0.00081091 Ry

     total magnetization       =     1.00 Bohr mag/cell
     absolute magnetization    =     1.02 Bohr mag/cell

     iteration #  4     ecut=    20.00 Ry     beta= 0.30
     Davidson diagonalization with overlap
     ethr =  2.70E-05,  avg # of iterations =  3.0

     negative rho (up, down):  7.530E-03 2.223E-01

     total cpu time spent up to now is        1.2 secs

     total energy              =      -3.31962604 Ry
     Harris-Foulkes estimate   =      -3.30932655 Ry
     estimated scf accuracy    <       0.00033391 Ry

     total magnetization       =     1.00 Bohr mag/cell
     absolute magnetization    =     1.01 Bohr mag/cell

     iteration #  5     ecut=    20.00 Ry     beta= 0.30
     Davidson diagonalization with overlap
     ethr =  1.11E-05,  avg # of iterations =  3.5

     negative rho (up, down):  7.684E-03 2.211E-01

     total cpu time spent up to now is        1.2 secs

     total energy              =      -3.31959657 Ry
     Harris-Foulkes estimate   =      -3.31986058 Ry
     estimated scf accuracy    <       0.00002293 Ry

     total magnetization       =     1.00 Bohr mag/cell
     absolute magnetization    =     1.02 Bohr mag/cell

     iteration #  6     ecut=    20.00 Ry     beta= 0.30
     Davidson diagonalization with overlap
     ethr =  7.64E-07,  avg # of iterations =  1.5

     negative rho (up, down):  7.788E-03 2.190E-01

     total cpu time spent up to now is        1.3 secs

     total energy              =      -3.31544497 Ry
     Harris-Foulkes estimate   =      -3.31959708 Ry
     estimated scf accuracy    <       0.00002481 Ry

     total magnetization       =     1.00 Bohr mag/cell
     absolute magnetization    =     1.02 Bohr mag/cell

     iteration #  7     ecut=    20.00 Ry     beta= 0.30
     Davidson diagonalization with overlap
     ethr =  7.64E-07,  avg # of iterations =  3.0

     negative rho (up, down):  7.879E-03 2.157E-01

     total cpu time spent up to now is        1.3 secs

     total energy              =      -3.31265312 Ry
     Harris-Foulkes estimate   =      -3.31546465 Ry
     estimated scf accuracy    <       0.00001356 Ry

     total magnetization       =     1.00 Bohr mag/cell
     absolute magnetization    =     1.02 Bohr mag/cell

     iteration #  8     ecut=    20.00 Ry     beta= 0.30
     Davidson diagonalization with overlap
     ethr =  4.52E-07,  avg # of iterations =  2.5

     negative rho (up, down):  7.928E-03 2.183E-01

     total cpu time spent up to now is        1.4 secs

     total energy              =      -3.31293091 Ry
     Harris-Foulkes estimate   =      -3.31266511 Ry
     estimated scf accuracy    <       0.00001226 Ry

     total magnetization       =     1.00 Bohr mag/cell
     absolute magnetization    =     1.02 Bohr mag/cell

     iteration #  9     ecut=    20.00 Ry     beta= 0.30
     Davidson diagonalization with overlap
     ethr =  4.09E-07,  avg # of iterations =  1.5

     negative rho (up, down):  7.937E-03 2.194E-01

     total cpu time spent up to now is        1.4 secs

     total energy              =      -3.31267935 Ry
     Harris-Foulkes estimate   =      -3.31293124 Ry
     estimated scf accuracy    <       0.00000985 Ry

     total magnetization       =     1.00 Bohr mag/cell
     absolute magnetization    =     1.02 Bohr mag/cell

     iteration # 10     ecut=    20.00 Ry     beta= 0.30
     Davidson diagonalization with overlap
     ethr =  3.28E-07,  avg # of iterations =  1.5

     negative rho (up, down):  7.943E-03 2.202E-01

     total cpu time spent up to now is        1.5 secs

     total energy              =      -3.31263738 Ry
     Harris-Foulkes estimate   =      -3.31267968 Ry
     estimated scf accuracy    <       0.00000302 Ry

     total magnetization       =     1.00 Bohr mag/cell
     absolute magnetization    =     1.02 Bohr mag/cell

     iteration # 11     ecut=    20.00 Ry     beta= 0.30
     Davidson diagonalization with overlap
     ethr =  1.01E-07,  avg # of iterations =  1.5

     negative rho (up, down):  7.965E-03 2.209E-01

     total cpu time spent up to now is        1.5 secs

     total energy              =      -3.31262995 Ry
     Harris-Foulkes estimate   =      -3.31263777 Ry
     estimated scf accuracy    <       0.00000017 Ry

     total magnetization       =     1.00 Bohr mag/cell
     absolute magnetization    =     1.02 Bohr mag/cell

     iteration # 12     ecut=    20.00 Ry     beta= 0.30
     Davidson diagonalization with overlap
     ethr =  5.61E-09,  avg # of iterations =  1.0

     negative rho (up, down):  7.972E-03 2.211E-01

     total cpu time spent up to now is        1.5 secs

     total energy              =      -3.31262475 Ry
     Harris-Foulkes estimate   =      -3.31262996 Ry
     estimated scf accuracy    <       0.00000024 Ry

     total magnetization       =     1.00 Bohr mag/cell
     absolute magnetization    =     1.02 Bohr mag/cell

     iteration # 13     ecut=    20.00 Ry     beta= 0.30
     Davidson diagonalization with overlap
     ethr =  5.61E-09,  avg # of iterations =  2.0

     negative rho (up, down):  7.984E-03 2.212E-01

     total cpu time spent up to now is        1.6 secs

     total energy              =      -3.31262601 Ry
     Harris-Foulkes estimate   =      -3.31262480 Ry
     estimated scf accuracy    <       0.00000004 Ry

     total magnetization       =     1.00 Bohr mag/cell
     absolute magnetization    =     1.02 Bohr mag/cell

     iteration # 14     ecut=    20.00 Ry     beta= 0.30
     Davidson diagonalization with overlap
     ethr =  1.27E-09,  avg # of iterations =  2.0

     negative rho (up, down):  7.993E-03 2.217E-01

     total cpu time spent up to now is        1.6 secs

     total energy              =      -3.31259780 Ry
     Harris-Foulkes estimate   =      -3.31262602 Ry
     estimated scf accuracy    <       0.00000002 Ry

     total magnetization       =     1.00 Bohr mag/cell
     absolute magnetization    =     1.02 Bohr mag/cell

     iteration # 15     ecut=    20.00 Ry     beta= 0.30
     Davidson diagonalization with overlap
     ethr =  5.03E-10,  avg # of iterations =  2.0

     negative rho (up, down):  8.008E-03 2.222E-01

     Magnetic moment per site:
     atom:    1    charge:    0.2188    magn:    0.0045    constr:    0.0000
     atom:    2    charge:    0.2187    magn:   -0.0005    constr:    0.0000
     atom:    3    charge:    0.1510    magn:    0.1505    constr:    0.0000

     total cpu time spent up to now is        1.7 secs

     End of self-consistent calculation

 ------ SPIN UP ------------


          k = 0.0000 0.0000 0.0000 (  3057 PWs)   bands (ev):

   -10.0787  -7.5344  -0.8739  -0.0164   0.2986   1.2723

     occupation numbers 
     1.0000   1.0000   0.0000   0.0000   0.0000   0.0000

 ------ SPIN DOWN ----------


          k = 0.0000 0.0000 0.0000 (  3057 PWs)   bands (ev):

    -9.9577  -2.0716  -0.6847   0.4096   1.6704   2.0476

     occupation numbers 
     1.0000   0.0000   0.0000   0.0000   0.0000   0.0000

     the Fermi energy is    -4.0155 ev

!    total energy              =      -3.31262146 Ry
     Harris-Foulkes estimate   =      -3.31259781 Ry
     estimated scf accuracy    <          4.0E-09 Ry

     The total energy is the sum of the following terms:

     one-electron contribution =      -4.53166561 Ry
     hartree contribution      =       2.49132605 Ry
     xc contribution           =      -1.93055418 Ry
     ewald contribution        =       0.65827227 Ry
     smearing contrib. (-TS)   =      -0.00000000 Ry

     total magnetization       =     1.00 Bohr mag/cell
     absolute magnetization    =     1.02 Bohr mag/cell

     convergence has been achieved in  15 iterations

     Forces acting on atoms (cartesian axes, Ry/au):

     atom    1 type  1   force =     0.04330139    0.00000000    0.00000000
     atom    2 type  1   force =    -0.04641122    0.00000000    0.00000000
     atom    3 type  1   force =     0.00310982    0.00000000    0.00000000
     The non-local contrib.  to forces
     atom    1 type  1   force =     0.06129499    0.00000000    0.00000000
     atom    2 type  1   force =    -0.06092300    0.00000000    0.00000000
     atom    3 type  1   force =    -0.00035866    0.00000000    0.00000000
     The ionic contribution  to forces
     atom    1 type  1   force =    -0.97466910   -0.00000000   -0.00000000
     atom    2 type  1   force =     0.74692153   -0.00000000   -0.00000000
     atom    3 type  1   force =     0.22774757    0.00000000   -0.00000000
     The local contribution  to forces
     atom    1 type  1   force =     0.95744262    0.00000000    0.00000000
     atom    2 type  1   force =    -0.73165197   -0.00000000    0.00000000
     atom    3 type  1   force =    -0.22371093   -0.00000000    0.00000000
     The core correction contribution to forces
     atom    1 type  1   force =     0.00000000    0.00000000    0.00000000
     atom    2 type  1   force =     0.00000000    0.00000000    0.00000000
     atom    3 type  1   force =     0.00000000    0.00000000    0.00000000
     The Hubbard contrib.    to forces
     atom    1 type  1   force =     0.00000000    0.00000000    0.00000000
     atom    2 type  1   force =     0.00000000    0.00000000    0.00000000
     atom    3 type  1   force =     0.00000000    0.00000000    0.00000000
     The SCF correction term to forces
     atom    1 type  1   force =    -0.00000000   -0.00000000    0.00000000
     atom    2 type  1   force =    -0.00000485   -0.00000000    0.00000000
     atom    3 type  1   force =     0.00000000   -0.00000000    0.00000000

     Total force =     0.046411     Total SCF correction =     0.000005

     BFGS Geometry Optimization

     number of scf cycles    =   1
     number of bfgs steps    =   0

     energy   new            =      -3.3126214612 Ry

     new trust radius        =       0.0464112182 bohr
     new conv_thr            =       0.0000000100 Ry


ATOMIC_POSITIONS (angstrom)
H        0.000000000   0.000000000   0.000000000    0   0   0
H        0.775440241   0.000000000   0.000000000
H        3.000000000   0.000000000   0.000000000    0   0   0



     Writing output data file initial.save/
     NEW-OLD atomic charge density approx. for the potential

     negative rho (up, down):  8.016E-03 1.512E-01

     total cpu time spent up to now is        1.7 secs

     Self-consistent Calculation

     iteration #  1     ecut=    20.00 Ry     beta= 0.30
     Davidson diagonalization with overlap
     ethr =  1.00E-06,  avg # of iterations =  3.5

     negative rho (up, down):  8.166E-03 2.141E-01

     total cpu time spent up to now is        1.8 secs

     total energy              =      -3.31448626 Ry
     Harris-Foulkes estimate   =      -3.31426593 Ry
     estimated scf accuracy    <       0.00022538 Ry

     total magnetization       =     1.00 Bohr mag/cell
     absolute magnetization    =     1.02 Bohr mag/cell

     iteration #  2     ecut=    20.00 Ry     beta= 0.30
     Davidson diagonalization with overlap
     ethr =  7.51E-06,  avg # of iterations =  1.0

     negative rho (up, down):  8.307E-03 2.153E-01

     total cpu time spent up to now is        1.8 secs

     total energy              =      -3.31466460 Ry
     Harris-Foulkes estimate   =      -3.31449122 Ry
     estimated scf accuracy    <       0.00007672 Ry

     total magnetization       =     1.00 Bohr mag/cell
     absolute magnetization    =     1.01 Bohr mag/cell

     iteration #  3     ecut=    20.00 Ry     beta= 0.30
     Davidson diagonalization with overlap
     ethr =  2.56E-06,  avg # of iterations =  2.0

     negative rho (up, down):  8.355E-03 2.181E-01

     total cpu time spent up to now is        1.9 secs

     total energy              =      -3.31476428 Ry
     Harris-Foulkes estimate   =      -3.31467317 Ry
     estimated scf accuracy    <       0.00000144 Ry

     total magnetization       =     1.00 Bohr mag/cell
     absolute magnetization    =     1.01 Bohr mag/cell

     iteration #  4     ecut=    20.00 Ry     beta= 0.30
     Davidson diagonalization with overlap
     ethr =  4.81E-08,  avg # of iterations =  2.0

     negative rho (up, down):  8.387E-03 2.191E-01

     total cpu time spent up to now is        1.9 secs

     total energy              =      -3.31477861 Ry
     Harris-Foulkes estimate   =      -3.31476453 Ry
     estimated scf accuracy    <       0.00000008 Ry

     total magnetization       =     1.00 Bohr mag/cell
     absolute magnetization    =     1.01 Bohr mag/cell

     iteration #  5     ecut=    20.00 Ry     beta= 0.30
     Davidson diagonalization with overlap
     ethr =  2.70E-09,  avg # of iterations =  1.5

     negative rho (up, down):  8.406E-03 2.202E-01

     total cpu time spent up to now is        1.9 secs

     total energy              =      -3.31479615 Ry
     Harris-Foulkes estimate   =      -3.31477862 Ry
     estimated scf accuracy    <       0.00000004 Ry

     total magnetization       =     1.00 Bohr mag/cell
     absolute magnetization    =     1.01 Bohr mag/cell

     iteration #  6     ecut=    20.00 Ry     beta= 0.30
     Davidson diagonalization with overlap
     ethr =  1.18E-09,  avg # of iterations =  2.0

     negative rho (up, down):  8.424E-03 2.212E-01

     total cpu time spent up to now is        2.0 secs

     total energy              =      -3.31483521 Ry
     Harris-Foulkes estimate   =      -3.31479618 Ry
     estimated scf accuracy    <       0.00000001 Ry

     total magnetization       =     1.00 Bohr mag/cell
     absolute magnetization    =     1.01 Bohr mag/cell

     iteration #  7     ecut=    20.00 Ry     beta= 0.30
     Davidson diagonalization with overlap
     ethr =  4.60E-10,  avg # of iterations =  2.0

     negative rho (up, down):  8.463E-03 2.213E-01

     Magnetic moment per site:
     atom:    1    charge:    0.2256    magn:    0.0040    constr:    0.0000
     atom:    2    charge:    0.2190    magn:   -0.0004    constr:    0.0000
     atom:    3    charge:    0.1509    magn:    0.1505    constr:    0.0000

     total cpu time spent up to now is        2.1 secs

     End of self-consistent calculation

 ------ SPIN UP ------------


          k = 0.0000 0.0000 0.0000 (  3057 PWs)   bands (ev):

   -10.1778  -7.5490  -0.8717  -0.0116   0.2867   1.3338

     occupation numbers 
     1.0000   1.0000   0.0000   0.0000   0.0000   0.0000

 ------ SPIN DOWN ----------


          k = 0.0000 0.0000 0.0000 (  3057 PWs)   bands (ev):

   -10.0692  -2.0371  -0.6817   0.3935   1.7235   2.0705

     occupation numbers 
     1.0000   0.0000   0.0000   0.0000   0.0000   0.0000

     the Fermi energy is    -4.0536 ev

!    total energy              =      -3.31482338 Ry
     Harris-Foulkes estimate   =      -3.31483522 Ry
     estimated scf accuracy    <          1.3E-09 Ry

     The total energy is the sum of the following terms:

     one-electron contribution =      -4.58037139 Ry
     hartree contribution      =       2.51717039 Ry
     xc contribution           =      -1.94589615 Ry
     ewald contribution        =       0.69427377 Ry
     smearing contrib. (-TS)   =      -0.00000000 Ry

     total magnetization       =     1.00 Bohr mag/cell
     absolute magnetization    =     1.01 Bohr mag/cell

     convergence has been achieved in   7 iterations

     Forces acting on atoms (cartesian axes, Ry/au):

     atom    1 type  1   force =     0.01903410    0.00000000    0.00000000
     atom    2 type  1   force =    -0.02242977    0.00000000    0.00000000
     atom    3 type  1   force =     0.00339567    0.00000000    0.00000000
     The non-local contrib.  to forces
     atom    1 type  1   force =     0.06578422    0.00000000    0.00000000
     atom    2 type  1   force =    -0.06503276    0.00000000    0.00000000
     atom    3 type  1   force =    -0.00027828    0.00000000    0.00000000
     The ionic contribution  to forces
     atom    1 type  1   force =    -1.03062058    0.00000000   -0.00000000
     atom    2 type  1   force =     0.80535609   -0.00000000   -0.00000000
     atom    3 type  1   force =     0.22526449   -0.00000000   -0.00000000
     The local contribution  to forces
     atom    1 type  1   force =     0.98496565   -0.00000000    0.00000000
     atom    2 type  1   force =    -0.76164590    0.00000000    0.00000000
     atom    3 type  1   force =    -0.22042374   -0.00000000    0.00000000
     The core correction contribution to forces
     atom    1 type  1   force =     0.00000000    0.00000000    0.00000000
     atom    2 type  1   force =     0.00000000    0.00000000    0.00000000
     atom    3 type  1   force =     0.00000000    0.00000000    0.00000000
     The Hubbard contrib.    to forces
     atom    1 type  1   force =     0.00000000    0.00000000    0.00000000
     atom    2 type  1   force =     0.00000000    0.00000000    0.00000000
     atom    3 type  1   force =     0.00000000    0.00000000    0.00000000
     The SCF correction term to forces
     atom    1 type  1   force =    -0.00000000   -0.00000000    0.00000000
     atom    2 type  1   force =    -0.00003169   -0.00000000    0.00000000
     atom    3 type  1   force =    -0.00000000   -0.00000000    0.00000000

     Total force =     0.022430     Total SCF correction =     0.000032

     number of scf cycles    =   2
     number of bfgs steps    =   1

     energy   old            =      -3.3126214612 Ry
     energy   new            =      -3.3148233839 Ry

     CASE: energy  _new < energy  _old

     new trust radius        =       0.0434082427 bohr
     new conv_thr            =       0.0000000022 Ry


ATOMIC_POSITIONS (angstrom)
H        0.000000000   0.000000000   0.000000000    0   0   0
H        0.752469588   0.000000000   0.000000000
H        3.000000000   0.000000000   0.000000000    0   0   0



     Writing output data file initial.save/
     NEW-OLD atomic charge density approx. for the potential

     negative rho (up, down):  8.438E-03 1.559E-01

     total cpu time spent up to now is        2.1 secs

     Self-consistent Calculation

     iteration #  1     ecut=    20.00 Ry     beta= 0.30
     Davidson diagonalization with overlap
     ethr =  1.00E-06,  avg # of iterations =  3.0

     negative rho (up, down):  8.585E-03 2.295E-01

     total cpu time spent up to now is        2.2 secs

     total energy              =      -3.31549896 Ry
     Harris-Foulkes estimate   =      -3.31524954 Ry
     estimated scf accuracy    <       0.00021367 Ry

     total magnetization       =     1.00 Bohr mag/cell
     absolute magnetization    =     1.01 Bohr mag/cell

     iteration #  2     ecut=    20.00 Ry     beta= 0.30
     Davidson diagonalization with overlap
     ethr =  7.12E-06,  avg # of iterations =  1.0

     negative rho (up, down):  8.718E-03 2.269E-01

     total cpu time spent up to now is        2.2 secs

     total energy              =      -3.31559152 Ry
     Harris-Foulkes estimate   =      -3.31550357 Ry
     estimated scf accuracy    <       0.00007316 Ry

     total magnetization       =     1.00 Bohr mag/cell
     absolute magnetization    =     1.01 Bohr mag/cell

     iteration #  3     ecut=    20.00 Ry     beta= 0.30
     Davidson diagonalization with overlap
     ethr =  2.44E-06,  avg # of iterations =  2.0

     negative rho (up, down):  8.760E-03 2.240E-01

     total cpu time spent up to now is        2.3 secs

     total energy              =      -3.31558911 Ry
     Harris-Foulkes estimate   =      -3.31559965 Ry
     estimated scf accuracy    <       0.00000122 Ry

     total magnetization       =     1.00 Bohr mag/cell
     absolute magnetization    =     1.01 Bohr mag/cell

     iteration #  4     ecut=    20.00 Ry     beta= 0.30
     Davidson diagonalization with overlap
     ethr =  4.07E-08,  avg # of iterations =  1.0

     negative rho (up, down):  8.790E-03 2.231E-01

     total cpu time spent up to now is        2.3 secs

     total energy              =      -3.31562896 Ry
     Harris-Foulkes estimate   =      -3.31558927 Ry
     estimated scf accuracy    <       0.00000005 Ry

     total magnetization       =     1.00 Bohr mag/cell
     absolute magnetization    =     1.01 Bohr mag/cell

     iteration #  5     ecut=    20.00 Ry     beta= 0.30
     Davidson diagonalization with overlap
     ethr =  1.69E-09,  avg # of iterations =  2.0

     negative rho (up, down):  8.809E-03 2.208E-01

     total cpu time spent up to now is        2.3 secs

     total energy              =      -3.31569897 Ry
     Harris-Foulkes estimate   =      -3.31562898 Ry
     estimated scf accuracy    <       0.00000002 Ry

     total magnetization       =     1.00 Bohr mag/cell
     absolute magnetization    =     1.01 Bohr mag/cell

     iteration #  6     ecut=    20.00 Ry     beta= 0.30
     Davidson diagonalization with overlap
     ethr =  7.45E-10,  avg # of iterations =  2.0

     negative rho (up, down):  8.826E-03 2.202E-01

     total cpu time spent up to now is        2.4 secs

     total energy              =      -3.31563307 Ry
     Harris-Foulkes estimate   =      -3.31569900 Ry
     estimated scf accuracy    <       0.00000001 Ry

     total magnetization       =     1.00 Bohr mag/cell
     absolute magnetization    =     1.01 Bohr mag/cell

     iteration #  7     ecut=    20.00 Ry     beta= 0.30
     Davidson diagonalization with overlap
     ethr =  4.88E-10,  avg # of iterations =  2.0

     negative rho (up, down):  8.837E-03 2.207E-01

     total cpu time spent up to now is        2.4 secs

     total energy              =      -3.31563785 Ry
     Harris-Foulkes estimate   =      -3.31563309 Ry
     estimated scf accuracy    <          2.4E-09 Ry

     total magnetization       =     1.00 Bohr mag/cell
     absolute magnetization    =     1.01 Bohr mag/cell

     iteration #  8     ecut=    20.00 Ry     beta= 0.30
     Davidson diagonalization with overlap
     ethr =  8.09E-11,  avg # of iterations =  2.0

     negative rho (up, down):  8.865E-03 2.216E-01

     Magnetic moment per site:
     atom:    1    charge:    0.2324    magn:    0.0037    constr:    0.0000
     atom:    2    charge:    0.2186    magn:   -0.0003    constr:    0.0000
     atom:    3    charge:    0.1509    magn:    0.1506    constr:    0.0000

     total cpu time spent up to now is        2.5 secs

     End of self-consistent calculation

 ------ SPIN UP ------------


          k = 0.0000 0.0000 0.0000 (  3057 PWs)   bands (ev):

   -10.2752  -7.5591  -0.8705  -0.0089   0.2754   1.3899

     occupation numbers 
     1.0000   1.0000   0.0000   0.0000   0.0000   0.0000

 ------ SPIN DOWN ----------


          k = 0.0000 0.0000 0.0000 (  3057 PWs)   bands (ev):

   -10.1771  -2.0020  -0.6741   0.3805   1.7774   2.0917

     occupation numbers 
     1.0000   0.0000   0.0000   0.0000   0.0000   0.0000

     the Fermi energy is    -4.0918 ev

!    total energy              =      -3.31565434 Ry
     Harris-Foulkes estimate   =      -3.31563786 Ry
     estimated scf accuracy    <          1.7E-09 Ry

     The total energy is the sum of the following terms:

     one-electron contribution =      -4.62798014 Ry
     hartree contribution      =       2.54245258 Ry
     xc contribution           =      -1.96063566 Ry
     ewald contribution        =       0.73050888 Ry
     smearing contrib. (-TS)   =      -0.00000000 Ry

     total magnetization       =     1.00 Bohr mag/cell
     absolute magnetization    =     1.01 Bohr mag/cell

     convergence has been achieved in   8 iterations

     Forces acting on atoms (cartesian axes, Ry/au):

     atom    1 type  1   force =    -0.00762459    0.00000000    0.00000000
     atom    2 type  1   force =     0.00432159    0.00000000    0.00000000
     atom    3 type  1   force =     0.00330299    0.00000000    0.00000000
     The non-local contrib.  to forces
     atom    1 type  1   force =     0.07008271    0.00000000    0.00000000
     atom    2 type  1   force =    -0.06918014    0.00000000    0.00000000
     atom    3 type  1   force =    -0.00025472    0.00000000    0.00000000
     The ionic contribution  to forces
     atom    1 type  1   force =    -1.08801616   -0.00000000   -0.00000000
     atom    2 type  1   force =     0.86500428    0.00000000   -0.00000000
     atom    3 type  1   force =     0.22301188    0.00000000   -0.00000000
     The local contribution  to forces
     atom    1 type  1   force =     1.01143360   -0.00000000    0.00000000
     atom    2 type  1   force =    -0.79035197   -0.00000000    0.00000000
     atom    3 type  1   force =    -0.21779260   -0.00000000    0.00000000
     The core correction contribution to forces
     atom    1 type  1   force =     0.00000000    0.00000000    0.00000000
     atom    2 type  1   force =     0.00000000    0.00000000    0.00000000
     atom    3 type  1   force =     0.00000000    0.00000000    0.00000000
     The Hubbard contrib.    to forces
     atom    1 type  1   force =     0.00000000    0.00000000    0.00000000
     atom    2 type  1   force =     0.00000000    0.00000000    0.00000000
     atom    3 type  1   force =     0.00000000    0.00000000    0.00000000
     The SCF correction term to forces
     atom    1 type  1   force =    -0.00000000    0.00000000    0.00000000
     atom    2 type  1   force =    -0.00003116    0.00000000    0.00000000
     atom    3 type  1   force =    -0.00000000   -0.00000000    0.00000000

     Total force =     0.004322     Total SCF correction =     0.000031

     number of scf cycles    =   3
     number of bfgs steps    =   2

     energy   old            =      -3.3148233839 Ry
     energy   new            =      -3.3156543378 Ry

     CASE: energy  _new < energy  _old

     new trust radius        =       0.0070124551 bohr
     new conv_thr            =       0.0000000004 Ry


ATOMIC_POSITIONS (angstrom)
H        0.000000000   0.000000000   0.000000000    0   0   0
H        0.756180420   0.000000000   0.000000000
H        3.000000000   0.000000000   0.000000000    0   0   0



     Writing output data file initial.save/
     NEW-OLD atomic charge density approx. for the potential

     negative rho (up, down):  8.866E-03 1.606E-01

     total cpu time spent up to now is        2.5 secs

     Self-consistent Calculation

     iteration #  1     ecut=    20.00 Ry     beta= 0.30
     Davidson diagonalization with overlap
     ethr =  1.00E-06,  avg # of iterations =  2.0

     negative rho (up, down):  8.843E-03 2.123E-01

     total cpu time spent up to now is        2.6 secs

     total energy              =      -3.31570435 Ry
     Harris-Foulkes estimate   =      -3.31568114 Ry
     estimated scf accuracy    <       0.00000571 Ry

     total magnetization       =     1.00 Bohr mag/cell
     absolute magnetization    =     1.01 Bohr mag/cell

     iteration #  2     ecut=    20.00 Ry     beta= 0.30
     Davidson diagonalization with overlap
     ethr =  1.90E-07,  avg # of iterations =  1.0

     negative rho (up, down):  8.823E-03 2.136E-01

     total cpu time spent up to now is        2.6 secs

     total energy              =      -3.31570889 Ry
     Harris-Foulkes estimate   =      -3.31570453 Ry
     estimated scf accuracy    <       0.00000209 Ry

     total magnetization       =     1.00 Bohr mag/cell
     absolute magnetization    =     1.01 Bohr mag/cell

     iteration #  3     ecut=    20.00 Ry     beta= 0.30
     Davidson diagonalization with overlap
     ethr =  6.98E-08,  avg # of iterations =  2.0

     negative rho (up, down):  8.817E-03 2.157E-01

     total cpu time spent up to now is        2.7 secs

     total energy              =      -3.31571478 Ry
     Harris-Foulkes estimate   =      -3.31570919 Ry
     estimated scf accuracy    <       0.00000004 Ry

     total magnetization       =     1.00 Bohr mag/cell
     absolute magnetization    =     1.01 Bohr mag/cell

     iteration #  4     ecut=    20.00 Ry     beta= 0.30
     Davidson diagonalization with overlap
     ethr =  1.39E-09,  avg # of iterations =  2.0

     negative rho (up, down):  8.813E-03 2.167E-01

     total cpu time spent up to now is        2.7 secs

     total energy              =      -3.31569683 Ry
     Harris-Foulkes estimate   =      -3.31571480 Ry
     estimated scf accuracy    <       0.00000001 Ry

     total magnetization       =     1.00 Bohr mag/cell
     absolute magnetization    =     1.01 Bohr mag/cell

     iteration #  5     ecut=    20.00 Ry     beta= 0.30
     Davidson diagonalization with overlap
     ethr =  4.93E-10,  avg # of iterations =  2.0

     negative rho (up, down):  8.810E-03 2.179E-01

     total cpu time spent up to now is        2.7 secs

     total energy              =      -3.31569659 Ry
     Harris-Foulkes estimate   =      -3.31569684 Ry
     estimated scf accuracy    <          1.1E-09 Ry

     total magnetization       =     1.00 Bohr mag/cell
     absolute magnetization    =     1.01 Bohr mag/cell

     iteration #  6     ecut=    20.00 Ry     beta= 0.30
     Davidson diagonalization with overlap
     ethr =  3.71E-11,  avg # of iterations =  2.0

     negative rho (up, down):  8.809E-03 2.197E-01

     total cpu time spent up to now is        2.8 secs

     total energy              =      -3.31569757 Ry
     Harris-Foulkes estimate   =      -3.31569660 Ry
     estimated scf accuracy    <          1.1E-09 Ry

     total magnetization       =     1.00 Bohr mag/cell
     absolute magnetization    =     1.01 Bohr mag/cell

     iteration #  7     ecut=    20.00 Ry     beta= 0.30
     Davidson diagonalization with overlap
     ethr =  3.53E-11,  avg # of iterations =  2.0

     negative rho (up, down):  8.803E-03 2.220E-01

     Magnetic moment per site:
     atom:    1    charge:    0.2313    magn:    0.0037    constr:    0.0000
     atom:    2    charge:    0.2187    magn:   -0.0003    constr:    0.0000
     atom:    3    charge:    0.1509    magn:    0.1506    constr:    0.0000

     total cpu time spent up to now is        2.8 secs

     End of self-consistent calculation

 ------ SPIN UP ------------


          k = 0.0000 0.0000 0.0000 (  3057 PWs)   bands (ev):

   -10.2593  -7.5588  -0.8713  -0.0101   0.2761   1.3808

     occupation numbers 
     1.0000   1.0000   0.0000   0.0000   0.0000   0.0000

 ------ SPIN DOWN ----------


          k = 0.0000 0.0000 0.0000 (  3057 PWs)   bands (ev):

   -10.1596  -2.0225  -0.6778   0.3807   1.7675   2.0758

     occupation numbers 
     1.0000   0.0000   0.0000   0.0000   0.0000   0.0000

     the Fermi energy is    -4.0917 ev

!    total energy              =      -3.31569739 Ry
     Harris-Foulkes estimate   =      -3.31569757 Ry
     estimated scf accuracy    <          4.8E-11 Ry

     The total energy is the sum of the following terms:

     one-electron contribution =      -4.62011298 Ry
     hartree contribution      =       2.53824411 Ry
     xc contribution           =      -1.95830671 Ry
     ewald contribution        =       0.72447818 Ry
     smearing contrib. (-TS)   =      -0.00000000 Ry

     total magnetization       =     1.00 Bohr mag/cell
     absolute magnetization    =     1.01 Bohr mag/cell

     convergence has been achieved in   7 iterations

     Forces acting on atoms (cartesian axes, Ry/au):

     atom    1 type  1   force =    -0.00325147    0.00000000    0.00000000
     atom    2 type  1   force =    -0.00038351    0.00000000    0.00000000
     atom    3 type  1   force =     0.00363498    0.00000000    0.00000000
     The non-local contrib.  to forces
     atom    1 type  1   force =     0.06932687    0.00000000    0.00000000
     atom    2 type  1   force =    -0.06843798    0.00000000    0.00000000
     atom    3 type  1   force =    -0.00026021    0.00000000    0.00000000
     The ionic contribution  to forces
     atom    1 type  1   force =    -1.07838678    0.00000000   -0.00000000
     atom    2 type  1   force =     0.85501545    0.00000000   -0.00000000
     atom    3 type  1   force =     0.22337134    0.00000000   -0.00000000
     The local contribution  to forces
     atom    1 type  1   force =     1.00709663    0.00000000    0.00000000
     atom    2 type  1   force =    -0.78567525    0.00000000    0.00000000
     atom    3 type  1   force =    -0.21810759   -0.00000000    0.00000000
     The core correction contribution to forces
     atom    1 type  1   force =     0.00000000    0.00000000    0.00000000
     atom    2 type  1   force =     0.00000000    0.00000000    0.00000000
     atom    3 type  1   force =     0.00000000    0.00000000    0.00000000
     The Hubbard contrib.    to forces
     atom    1 type  1   force =     0.00000000    0.00000000    0.00000000
     atom    2 type  1   force =     0.00000000    0.00000000    0.00000000
     atom    3 type  1   force =     0.00000000    0.00000000    0.00000000
     The SCF correction term to forces
     atom    1 type  1   force =     0.00000000    0.00000000    0.00000000
     atom    2 type  1   force =     0.00000751    0.00000000    0.00000000
     atom    3 type  1   force =    -0.00000000   -0.00000000    0.00000000

     Total force =     0.000384     Total SCF correction =     0.000008

     bfgs converged in   4 scf cycles and   3 bfgs steps
     (criteria: energy <  1.0E-04 Ry, force <  1.0E-03 Ry/Bohr)

     End of BFGS Geometry Optimization

     Final energy   =      -3.3156973866 Ry
Begin final coordinates

ATOMIC_POSITIONS (angstrom)
H        0.000000000   0.000000000   0.000000000    0   0   0
H        0.756180420   0.000000000   0.000000000
H        3.000000000   0.000000000   0.000000000    0   0   0
End final coordinates



     Writing output data file initial.save/

     init_run     :      0.10s CPU      0.10s WALL (       1 calls)
     electrons    :      1.48s CPU      1.56s WALL (       4 calls)
     update_pot   :      0.14s CPU      0.14s WALL (       3 calls)
     forces       :      0.10s CPU      0.10s WALL (       4 calls)

     Called by init_run:
     wfcinit      :      0.00s CPU      0.00s WALL (       1 calls)
     wfcinit:atom :      0.00s CPU      0.00s WALL (       2 calls)
     wfcinit:wfcr :      0.00s CPU      0.00s WALL (       2 calls)
     potinit      :      0.03s CPU      0.03s WALL (       1 calls)
     hinit0       :      0.02s CPU      0.02s WALL (       1 calls)

     Called by electrons:
     c_bands      :      0.39s CPU      0.41s WALL (      37 calls)
     sum_band     :      0.19s CPU      0.20s WALL (      37 calls)
     v_of_rho     :      0.68s CPU      0.69s WALL (      41 calls)
     v_h          :      0.02s CPU      0.02s WALL (      41 calls)
     v_xc         :      0.66s CPU      0.67s WALL (      41 calls)
     newd         :      0.06s CPU      0.07s WALL (      41 calls)
     mix_rho      :      0.14s CPU      0.15s WALL (      37 calls)

     Called by c_bands:
     init_us_2    :      0.01s CPU      0.01s WALL (     158 calls)
     cegterg      :      0.38s CPU      0.40s WALL (      74 calls)

     Called by sum_band:
     sum_band:bec :      0.00s CPU      0.00s WALL (      74 calls)
     addusdens    :      0.03s CPU      0.04s WALL (      37 calls)

     Called by *egterg:
     h_psi        :      0.31s CPU      0.32s WALL (     229 calls)
     s_psi        :      0.01s CPU      0.01s WALL (     229 calls)
     g_psi        :      0.00s CPU      0.00s WALL (     153 calls)
     cdiaghg      :      0.01s CPU      0.01s WALL (     221 calls)
     cegterg:over :      0.02s CPU      0.02s WALL (     153 calls)
     cegterg:upda :      0.01s CPU      0.01s WALL (     153 calls)
     cegterg:last :      0.01s CPU      0.01s WALL (      76 calls)

     Called by h_psi:
     h_psi:pot    :      0.30s CPU      0.32s WALL (     229 calls)
     h_psi:calbec :      0.01s CPU      0.01s WALL (     229 calls)
     vloc_psi     :      0.29s CPU      0.30s WALL (     229 calls)
     add_vuspsi   :      0.01s CPU      0.01s WALL (     229 calls)

     General routines
     calbec       :      0.01s CPU      0.02s WALL (     335 calls)
     fft          :      0.30s CPU      0.31s WALL (    1016 calls)
     ffts         :      0.04s CPU      0.04s WALL (     156 calls)
     fftw         :      0.31s CPU      0.33s WALL (    2556 calls)
     interpolate  :      0.05s CPU      0.05s WALL (      82 calls)

     Parallel routines
     fft_scatt_xy :      0.08s CPU      0.08s WALL (    3728 calls)
     fft_scatt_yz :      0.21s CPU      0.22s WALL (    3728 calls)

     PWSCF        :      1.97s CPU      2.95s WALL


   This run was terminated on:  14:26:40  17Oct2020            

=------------------------------------------------------------------------------=
   JOB DONE.
=------------------------------------------------------------------------------=
