
     Program PWSCF v.6.4.1 starts on 10Nov2020 at  9:38:56 

     This program is part of the open-source Quantum ESPRESSO suite
     for quantum simulation of materials; please cite
         "P. Giannozzi et al., J. Phys.:Condens. Matter 21 395502 (2009);
         "P. Giannozzi et al., J. Phys.:Condens. Matter 29 465901 (2017);
          URL http://www.quantum-espresso.org", 
     in publications or presentations arising from this work. More details at
     http://www.quantum-espresso.org/quote

     Parallel version (MPI), running on     1 processors

     MPI processes distributed on     1 nodes
     Reading input from initial.pwi
Warning: card &CELL ignored
Warning: card / ignored

     Current dimensions of program PWSCF are:
     Max number of different atomic species (ntypx) = 10
     Max number of k-points (npk) =  40000
     Max angular momentum in pseudopotentials (lmaxx) =  3

     Subspace diagonalization in iterative solution of the eigenvalue problem:
     a serial algorithm will be used

     Message from routine setup:
     DEPRECATED: symmetry with ibrav=0, use correct ibrav instead

     G-vector sticks info
     --------------------
     sticks:   dense  smooth     PW     G-vecs:    dense   smooth      PW
     Sum        1703    1359    337                34165    24401    3057



     bravais-lattice index     =            0
     lattice parameter (alat)  =      22.6767  a.u.
     unit-cell volume          =    2024.5004 (a.u.)^3
     number of atoms/cell      =            3
     number of atomic types    =            1
     number of electrons       =         3.00
     number of Kohn-Sham states=            6
     kinetic-energy cutoff     =      20.0000  Ry
     charge density cutoff     =     100.0000  Ry
     convergence threshold     =      1.0E-08
     mixing beta               =       0.3000
     number of iterations used =            8  plain     mixing
     Exchange-correlation      = PBE ( 1  4  3  4 0 0)
     nstep                     =           50


     celldm(1)=  22.676714  celldm(2)=   0.000000  celldm(3)=   0.000000
     celldm(4)=   0.000000  celldm(5)=   0.000000  celldm(6)=   0.000000

     crystal axes: (cart. coord. in units of alat)
               a(1) = (   1.000000   0.000000   0.000000 )  
               a(2) = (   0.000000   0.416667   0.000000 )  
               a(3) = (   0.000000   0.000000   0.416667 )  

     reciprocal axes: (cart. coord. in units 2 pi/alat)
               b(1) = (  1.000000  0.000000  0.000000 )  
               b(2) = (  0.000000  2.400000  0.000000 )  
               b(3) = (  0.000000  0.000000  2.400000 )  


     PseudoPot. # 1 for H  read from file:
     /home/xing/datas/pseudo/H.pbe-rrkjus_psl.1.0.0.UPF
     MD5 check sum: 3f4114867bd07edc7f1424d066fc1888
     Pseudo is Ultrasoft, Zval =  1.0
     Generated using "atomic" code by A. Dal Corso v.6.3MaX
     Using radial grid of  929 points,  2 beta functions with: 
                l(1) =   0
                l(2) =   0
     Q(r) pseudized with 0 coefficients 


     atomic species   valence    mass     pseudopotential
        H              1.00     1.00800     H ( 1.00)

     Starting magnetic structure 
     atomic species   magnetization
        H            0.500

      8 Sym. Ops. (no inversion) found


                                    s                        frac. trans.

      isym =  1     identity                                     

 cryst.   s( 1) = (     1          0          0      )
                  (     0          1          0      )
                  (     0          0          1      )

 cart.    s( 1) = (  1.0000000  0.0000000  0.0000000 )
                  (  0.0000000  1.0000000  0.0000000 )
                  (  0.0000000  0.0000000  1.0000000 )


      isym =  2     180 deg rotation - cart. axis [1,0,0]        

 cryst.   s( 2) = (     1          0          0      )
                  (     0         -1          0      )
                  (     0          0         -1      )

 cart.    s( 2) = (  1.0000000  0.0000000  0.0000000 )
                  (  0.0000000 -1.0000000  0.0000000 )
                  (  0.0000000  0.0000000 -1.0000000 )


      isym =  3      90 deg rotation - cart. axis [-1,0,0]       

 cryst.   s( 3) = (     1          0          0      )
                  (     0          0         -1      )
                  (     0          1          0      )

 cart.    s( 3) = (  1.0000000  0.0000000  0.0000000 )
                  (  0.0000000  0.0000000  1.0000000 )
                  (  0.0000000 -1.0000000  0.0000000 )


      isym =  4      90 deg rotation - cart. axis [1,0,0]        

 cryst.   s( 4) = (     1          0          0      )
                  (     0          0          1      )
                  (     0         -1          0      )

 cart.    s( 4) = (  1.0000000  0.0000000  0.0000000 )
                  (  0.0000000  0.0000000 -1.0000000 )
                  (  0.0000000  1.0000000  0.0000000 )


      isym =  5     inv. 180 deg rotation - cart. axis [0,0,1]   

 cryst.   s( 5) = (     1          0          0      )
                  (     0          1          0      )
                  (     0          0         -1      )

 cart.    s( 5) = (  1.0000000  0.0000000  0.0000000 )
                  (  0.0000000  1.0000000  0.0000000 )
                  (  0.0000000  0.0000000 -1.0000000 )


      isym =  6     inv. 180 deg rotation - cart. axis [0,1,0]   

 cryst.   s( 6) = (     1          0          0      )
                  (     0         -1          0      )
                  (     0          0          1      )

 cart.    s( 6) = (  1.0000000  0.0000000  0.0000000 )
                  (  0.0000000 -1.0000000  0.0000000 )
                  (  0.0000000  0.0000000  1.0000000 )


      isym =  7     inv. 180 deg rotation - cart. axis [0,1,1]   

 cryst.   s( 7) = (     1          0          0      )
                  (     0          0         -1      )
                  (     0         -1          0      )

 cart.    s( 7) = (  1.0000000  0.0000000  0.0000000 )
                  (  0.0000000  0.0000000 -1.0000000 )
                  (  0.0000000 -1.0000000  0.0000000 )


      isym =  8     inv. 180 deg rotation - cart. axis [0,1,-1]  

 cryst.   s( 8) = (     1          0          0      )
                  (     0          0          1      )
                  (     0          1          0      )

 cart.    s( 8) = (  1.0000000  0.0000000  0.0000000 )
                  (  0.0000000  0.0000000  1.0000000 )
                  (  0.0000000  1.0000000  0.0000000 )


   Cartesian axes

     site n.     atom                  positions (alat units)
         1           H   tau(   1) = (   0.0000000   0.0000000   0.0000000  )
         2           H   tau(   2) = (   0.0666667   0.0000000   0.0000000  )
         3           H   tau(   3) = (   0.2500000   0.0000000   0.0000000  )

   Crystallographic axes

     site n.     atom                  positions (cryst. coord.)
         1           H   tau(   1) = (  0.0000000  0.0000000  0.0000000  )
         2           H   tau(   2) = (  0.0666667  0.0000000  0.0000000  )
         3           H   tau(   3) = (  0.2500000  0.0000000  0.0000000  )

     number of k points=     1  gaussian smearing, width (Ry)=  0.0300
                       cart. coord. in units 2pi/alat
        k(    1) = (   0.0000000   0.0000000   0.0000000), wk =   1.0000000

                       cryst. coord.
        k(    1) = (   0.0000000   0.0000000   0.0000000), wk =   1.0000000

     Dense  grid:    34165 G-vectors     FFT dimensions: (  75,  32,  32)

     Smooth grid:    24401 G-vectors     FFT dimensions: (  72,  27,  27)

     Dynamical RAM for                 wfc:       0.28 MB

     Dynamical RAM for     wfc (w. buffer):       0.84 MB

     Dynamical RAM for           str. fact:       0.52 MB

     Dynamical RAM for           local pot:       0.00 MB

     Dynamical RAM for          nlocal pot:       0.28 MB

     Dynamical RAM for                qrad:       0.08 MB

     Dynamical RAM for          rho,v,vnew:       6.64 MB

     Dynamical RAM for               rhoin:       2.21 MB

     Dynamical RAM for            rho*nmix:      16.68 MB

     Dynamical RAM for           G-vectors:       2.14 MB

     Dynamical RAM for          h,s,v(r/c):       0.03 MB

     Dynamical RAM for          <psi|beta>:       0.00 MB

     Dynamical RAM for                 psi:       1.12 MB

     Dynamical RAM for                hpsi:       1.12 MB

     Dynamical RAM for                spsi:       1.12 MB

     Dynamical RAM for      wfcinit/wfcrot:       0.56 MB

     Dynamical RAM for           addusdens:       5.21 MB

     Dynamical RAM for          addusforce:       7.30 MB

     Estimated static dynamical RAM per process >      33.96 MB

     Estimated max dynamical RAM per process >      41.26 MB
     Generating pointlists ...
     new r_m :   0.0275 (alat units)  0.6236 (a.u.) for type    1

     Initial potential from superposition of free atoms

     starting charge    2.99997, renormalised to    3.00000

     negative rho (up, down):  4.316E-03 0.000E+00
     Starting wfcs are    3 randomized atomic wfcs +    3 random wfcs

     total cpu time spent up to now is        0.7 secs

     Self-consistent Calculation

     iteration #  1     ecut=    20.00 Ry     beta= 0.30
     Davidson diagonalization with overlap
     ethr =  1.00E-02,  avg # of iterations =  4.5

     negative rho (up, down):  5.325E-03 6.173E-02

     total cpu time spent up to now is        1.1 secs

     total energy              =      -3.28955008 Ry
     Harris-Foulkes estimate   =      -3.28240581 Ry
     estimated scf accuracy    <       0.09778407 Ry

     total magnetization       =     1.00 Bohr mag/cell
     absolute magnetization    =     1.03 Bohr mag/cell

     iteration #  2     ecut=    20.00 Ry     beta= 0.30
     Davidson diagonalization with overlap
     ethr =  3.26E-03,  avg # of iterations =  1.0

     negative rho (up, down):  7.065E-03 1.712E-01

     total cpu time spent up to now is        1.4 secs

     total energy              =      -3.30252593 Ry
     Harris-Foulkes estimate   =      -3.29113064 Ry
     estimated scf accuracy    <       0.03874097 Ry

     total magnetization       =     1.00 Bohr mag/cell
     absolute magnetization    =     1.02 Bohr mag/cell

     iteration #  3     ecut=    20.00 Ry     beta= 0.30
     Davidson diagonalization with overlap
     ethr =  1.29E-03,  avg # of iterations =  1.5

     negative rho (up, down):  7.126E-03 1.729E-01

     total cpu time spent up to now is        1.7 secs

     total energy              =      -3.30919275 Ry
     Harris-Foulkes estimate   =      -3.30756987 Ry
     estimated scf accuracy    <       0.00080985 Ry

     total magnetization       =     1.00 Bohr mag/cell
     absolute magnetization    =     1.02 Bohr mag/cell

     iteration #  4     ecut=    20.00 Ry     beta= 0.30
     Davidson diagonalization with overlap
     ethr =  2.70E-05,  avg # of iterations =  3.0

     negative rho (up, down):  7.532E-03 2.224E-01

     total cpu time spent up to now is        2.0 secs

     total energy              =      -3.31961658 Ry
     Harris-Foulkes estimate   =      -3.30934938 Ry
     estimated scf accuracy    <       0.00033919 Ry

     total magnetization       =     1.00 Bohr mag/cell
     absolute magnetization    =     1.01 Bohr mag/cell

     iteration #  5     ecut=    20.00 Ry     beta= 0.30
     Davidson diagonalization with overlap
     ethr =  1.13E-05,  avg # of iterations =  3.5

     negative rho (up, down):  7.686E-03 2.212E-01

     total cpu time spent up to now is        2.3 secs

     total energy              =      -3.31990035 Ry
     Harris-Foulkes estimate   =      -3.31986677 Ry
     estimated scf accuracy    <       0.00002350 Ry

     total magnetization       =     1.00 Bohr mag/cell
     absolute magnetization    =     1.02 Bohr mag/cell

     iteration #  6     ecut=    20.00 Ry     beta= 0.30
     Davidson diagonalization with overlap
     ethr =  7.83E-07,  avg # of iterations =  2.0

     negative rho (up, down):  7.814E-03 2.219E-01

     total cpu time spent up to now is        2.6 secs

     total energy              =      -3.31918726 Ry
     Harris-Foulkes estimate   =      -3.31990086 Ry
     estimated scf accuracy    <       0.00002630 Ry

     total magnetization       =     1.00 Bohr mag/cell
     absolute magnetization    =     1.02 Bohr mag/cell

     iteration #  7     ecut=    20.00 Ry     beta= 0.30
     Davidson diagonalization with overlap
     ethr =  7.83E-07,  avg # of iterations =  3.0

     negative rho (up, down):  7.881E-03 2.180E-01

     total cpu time spent up to now is        2.9 secs

     total energy              =      -3.31423118 Ry
     Harris-Foulkes estimate   =      -3.31919617 Ry
     estimated scf accuracy    <       0.00000513 Ry

     total magnetization       =     1.00 Bohr mag/cell
     absolute magnetization    =     1.02 Bohr mag/cell

     iteration #  8     ecut=    20.00 Ry     beta= 0.30
     Davidson diagonalization with overlap
     ethr =  1.71E-07,  avg # of iterations =  4.0

     negative rho (up, down):  7.934E-03 2.214E-01

     total cpu time spent up to now is        3.3 secs

     total energy              =      -3.31401622 Ry
     Harris-Foulkes estimate   =      -3.31425880 Ry
     estimated scf accuracy    <       0.00000856 Ry

     total magnetization       =     1.00 Bohr mag/cell
     absolute magnetization    =     1.02 Bohr mag/cell

     iteration #  9     ecut=    20.00 Ry     beta= 0.30
     Davidson diagonalization with overlap
     ethr =  1.71E-07,  avg # of iterations =  2.5

     negative rho (up, down):  7.970E-03 2.224E-01

     total cpu time spent up to now is        3.6 secs

     total energy              =      -3.31401456 Ry
     Harris-Foulkes estimate   =      -3.31401661 Ry
     estimated scf accuracy    <       0.00000739 Ry

     total magnetization       =     1.00 Bohr mag/cell
     absolute magnetization    =     1.02 Bohr mag/cell

     iteration # 10     ecut=    20.00 Ry     beta= 0.30
     Davidson diagonalization with overlap
     ethr =  1.71E-07,  avg # of iterations =  1.0

     negative rho (up, down):  7.964E-03 2.207E-01

     total cpu time spent up to now is        3.9 secs

     total energy              =      -3.31267992 Ry
     Harris-Foulkes estimate   =      -3.31401460 Ry
     estimated scf accuracy    <       0.00000702 Ry

     total magnetization       =     1.00 Bohr mag/cell
     absolute magnetization    =     1.02 Bohr mag/cell

     iteration # 11     ecut=    20.00 Ry     beta= 0.30
     Davidson diagonalization with overlap
     ethr =  1.71E-07,  avg # of iterations =  3.0

     negative rho (up, down):  7.966E-03 2.220E-01

     total cpu time spent up to now is        4.2 secs

     total energy              =      -3.31284450 Ry
     Harris-Foulkes estimate   =      -3.31268322 Ry
     estimated scf accuracy    <       0.00000157 Ry

     total magnetization       =     1.00 Bohr mag/cell
     absolute magnetization    =     1.02 Bohr mag/cell

     iteration # 12     ecut=    20.00 Ry     beta= 0.30
     Davidson diagonalization with overlap
     ethr =  5.22E-08,  avg # of iterations =  2.0

     negative rho (up, down):  7.980E-03 2.216E-01

     total cpu time spent up to now is        4.5 secs

     total energy              =      -3.31262684 Ry
     Harris-Foulkes estimate   =      -3.31284488 Ry
     estimated scf accuracy    <       0.00000039 Ry

     total magnetization       =     1.00 Bohr mag/cell
     absolute magnetization    =     1.02 Bohr mag/cell

     iteration # 13     ecut=    20.00 Ry     beta= 0.30
     Davidson diagonalization with overlap
     ethr =  1.29E-08,  avg # of iterations =  2.0

     negative rho (up, down):  7.987E-03 2.221E-01

     total cpu time spent up to now is        4.8 secs

     total energy              =      -3.31291592 Ry
     Harris-Foulkes estimate   =      -3.31262713 Ry
     estimated scf accuracy    <       0.00000044 Ry

     total magnetization       =     1.00 Bohr mag/cell
     absolute magnetization    =     1.02 Bohr mag/cell

     iteration # 14     ecut=    20.00 Ry     beta= 0.30
     Davidson diagonalization with overlap
     ethr =  1.29E-08,  avg # of iterations =  2.0

     negative rho (up, down):  7.993E-03 2.219E-01

     total cpu time spent up to now is        5.1 secs

     total energy              =      -3.31267673 Ry
     Harris-Foulkes estimate   =      -3.31291612 Ry
     estimated scf accuracy    <       0.00000014 Ry

     total magnetization       =     1.00 Bohr mag/cell
     absolute magnetization    =     1.02 Bohr mag/cell

     iteration # 15     ecut=    20.00 Ry     beta= 0.30
     Davidson diagonalization with overlap
     ethr =  4.78E-09,  avg # of iterations =  2.0

     negative rho (up, down):  8.000E-03 2.225E-01

     total cpu time spent up to now is        5.4 secs

     total energy              =      -3.31292058 Ry
     Harris-Foulkes estimate   =      -3.31267690 Ry
     estimated scf accuracy    <       0.00000015 Ry

     total magnetization       =     1.00 Bohr mag/cell
     absolute magnetization    =     1.02 Bohr mag/cell

     iteration # 16     ecut=    20.00 Ry     beta= 0.30
     Davidson diagonalization with overlap
     ethr =  4.78E-09,  avg # of iterations =  2.0

     negative rho (up, down):  8.002E-03 2.225E-01

     total cpu time spent up to now is        5.7 secs

     total energy              =      -3.31283651 Ry
     Harris-Foulkes estimate   =      -3.31292072 Ry
     estimated scf accuracy    <       0.00000004 Ry

     total magnetization       =     1.00 Bohr mag/cell
     absolute magnetization    =     1.02 Bohr mag/cell

     iteration # 17     ecut=    20.00 Ry     beta= 0.30
     Davidson diagonalization with overlap
     ethr =  1.25E-09,  avg # of iterations =  2.0

     negative rho (up, down):  8.003E-03 2.221E-01

     total cpu time spent up to now is        6.0 secs

     total energy              =      -3.31261421 Ry
     Harris-Foulkes estimate   =      -3.31283655 Ry
     estimated scf accuracy    <       0.00000003 Ry

     total magnetization       =     1.00 Bohr mag/cell
     absolute magnetization    =     1.02 Bohr mag/cell

     iteration # 18     ecut=    20.00 Ry     beta= 0.30
     Davidson diagonalization with overlap
     ethr =  1.08E-09,  avg # of iterations =  2.5

     negative rho (up, down):  8.006E-03 2.223E-01

     total cpu time spent up to now is        6.3 secs

     total energy              =      -3.31262094 Ry
     Harris-Foulkes estimate   =      -3.31261437 Ry
     estimated scf accuracy    <       0.00000008 Ry

     total magnetization       =     1.00 Bohr mag/cell
     absolute magnetization    =     1.02 Bohr mag/cell

     iteration # 19     ecut=    20.00 Ry     beta= 0.30
     Davidson diagonalization with overlap
     ethr =  1.08E-09,  avg # of iterations =  2.0

     negative rho (up, down):  8.007E-03 2.223E-01

     total cpu time spent up to now is        6.5 secs

     total energy              =      -3.31262090 Ry
     Harris-Foulkes estimate   =      -3.31262095 Ry
     estimated scf accuracy    <       0.00000012 Ry

     total magnetization       =     1.00 Bohr mag/cell
     absolute magnetization    =     1.02 Bohr mag/cell

     iteration # 20     ecut=    20.00 Ry     beta= 0.30
     Davidson diagonalization with overlap
     ethr =  1.08E-09,  avg # of iterations =  1.0

     negative rho (up, down):  8.008E-03 2.224E-01

     total cpu time spent up to now is        6.8 secs

     total energy              =      -3.31262097 Ry
     Harris-Foulkes estimate   =      -3.31262090 Ry
     estimated scf accuracy    <       0.00000011 Ry

     total magnetization       =     1.00 Bohr mag/cell
     absolute magnetization    =     1.02 Bohr mag/cell

     iteration # 21     ecut=    20.00 Ry     beta= 0.30
     Davidson diagonalization with overlap
     ethr =  1.08E-09,  avg # of iterations =  1.0

     negative rho (up, down):  8.009E-03 2.224E-01

     total cpu time spent up to now is        7.1 secs

     total energy              =      -3.31262071 Ry
     Harris-Foulkes estimate   =      -3.31262097 Ry
     estimated scf accuracy    <       0.00000012 Ry

     total magnetization       =     1.00 Bohr mag/cell
     absolute magnetization    =     1.02 Bohr mag/cell

     iteration # 22     ecut=    20.00 Ry     beta= 0.30
     Davidson diagonalization with overlap
     ethr =  1.08E-09,  avg # of iterations =  1.0

     negative rho (up, down):  8.008E-03 2.224E-01

     total cpu time spent up to now is        7.4 secs

     total energy              =      -3.31265196 Ry
     Harris-Foulkes estimate   =      -3.31262071 Ry
     estimated scf accuracy    <       0.00000015 Ry

     total magnetization       =     1.00 Bohr mag/cell
     absolute magnetization    =     1.02 Bohr mag/cell

     iteration # 23     ecut=    20.00 Ry     beta= 0.30
     Davidson diagonalization with overlap
     ethr =  1.08E-09,  avg # of iterations =  2.0

     negative rho (up, down):  8.009E-03 2.224E-01

     total cpu time spent up to now is        7.7 secs

     total energy              =      -3.31265187 Ry
     Harris-Foulkes estimate   =      -3.31265197 Ry
     estimated scf accuracy    <       0.00000007 Ry

     total magnetization       =     1.00 Bohr mag/cell
     absolute magnetization    =     1.02 Bohr mag/cell

     iteration # 24     ecut=    20.00 Ry     beta= 0.30
     Davidson diagonalization with overlap
     ethr =  1.08E-09,  avg # of iterations =  1.0

     negative rho (up, down):  8.010E-03 2.226E-01

     total cpu time spent up to now is        8.0 secs

     total energy              =      -3.31269093 Ry
     Harris-Foulkes estimate   =      -3.31265187 Ry
     estimated scf accuracy    <       0.00000008 Ry

     total magnetization       =     1.00 Bohr mag/cell
     absolute magnetization    =     1.02 Bohr mag/cell

     iteration # 25     ecut=    20.00 Ry     beta= 0.30
     Davidson diagonalization with overlap
     ethr =  1.08E-09,  avg # of iterations =  2.0

     negative rho (up, down):  8.010E-03 2.226E-01

     total cpu time spent up to now is        8.3 secs

     total energy              =      -3.31269096 Ry
     Harris-Foulkes estimate   =      -3.31269095 Ry
     estimated scf accuracy    <       0.00000008 Ry

     total magnetization       =     1.00 Bohr mag/cell
     absolute magnetization    =     1.02 Bohr mag/cell

     iteration # 26     ecut=    20.00 Ry     beta= 0.30
     Davidson diagonalization with overlap
     ethr =  1.08E-09,  avg # of iterations =  1.0

     negative rho (up, down):  8.007E-03 2.221E-01

     total cpu time spent up to now is        8.5 secs

     total energy              =      -3.31260508 Ry
     Harris-Foulkes estimate   =      -3.31269096 Ry
     estimated scf accuracy    <       0.00000007 Ry

     total magnetization       =     1.00 Bohr mag/cell
     absolute magnetization    =     1.02 Bohr mag/cell

     iteration # 27     ecut=    20.00 Ry     beta= 0.30
     Davidson diagonalization with overlap
     ethr =  1.08E-09,  avg # of iterations =  2.5

     negative rho (up, down):  8.008E-03 2.222E-01

     Magnetic moment per site:
     atom:    1    charge:    0.2188    magn:    0.0045    constr:    0.0000
     atom:    2    charge:    0.2187    magn:   -0.0005    constr:    0.0000
     atom:    3    charge:    0.1510    magn:    0.1505    constr:    0.0000

     total cpu time spent up to now is        8.8 secs

     End of self-consistent calculation

 ------ SPIN UP ------------


          k = 0.0000 0.0000 0.0000 (  3057 PWs)   bands (ev):

   -10.0788  -7.5345  -0.8742  -0.0166   0.2983   1.2720

     occupation numbers 
     1.0000   1.0000   0.0000   0.0000   0.0000   0.0000

 ------ SPIN DOWN ----------


          k = 0.0000 0.0000 0.0000 (  3057 PWs)   bands (ev):

    -9.9575  -2.0820  -0.6855   0.4088   1.6690   2.0392

     occupation numbers 
     1.0000   0.0000   0.0000   0.0000   0.0000   0.0000

     the Fermi energy is    -4.0198 ev

!    total energy              =      -3.31262160 Ry
     Harris-Foulkes estimate   =      -3.31260523 Ry
     estimated scf accuracy    <          5.0E-09 Ry

     The total energy is the sum of the following terms:

     one-electron contribution =      -4.53165606 Ry
     hartree contribution      =       2.49130470 Ry
     xc contribution           =      -1.93054251 Ry
     ewald contribution        =       0.65827227 Ry
     smearing contrib. (-TS)   =      -0.00000000 Ry

     total magnetization       =     1.00 Bohr mag/cell
     absolute magnetization    =     1.02 Bohr mag/cell

     convergence has been achieved in  27 iterations

     Forces acting on atoms (cartesian axes, Ry/au):

     atom    1 type  1   force =     0.04351163    0.00000000    0.00000000
     atom    2 type  1   force =    -0.04619593    0.00000000    0.00000000
     atom    3 type  1   force =     0.00268430    0.00000000    0.00000000
     The non-local contrib.  to forces
     atom    1 type  1   force =     0.06129372    0.00000000    0.00000000
     atom    2 type  1   force =    -0.06092117    0.00000000    0.00000000
     atom    3 type  1   force =    -0.00035733    0.00000000    0.00000000
     The ionic contribution  to forces
     atom    1 type  1   force =    -0.97466910    0.00000000   -0.00000000
     atom    2 type  1   force =     0.74692153   -0.00000000   -0.00000000
     atom    3 type  1   force =     0.22774757    0.00000000   -0.00000000
     The local contribution  to forces
     atom    1 type  1   force =     0.95742396    0.00000000    0.00000000
     atom    2 type  1   force =    -0.73166960   -0.00000000    0.00000000
     atom    3 type  1   force =    -0.22370491    0.00000000    0.00000000
     The core correction contribution to forces
     atom    1 type  1   force =     0.00000000    0.00000000    0.00000000
     atom    2 type  1   force =     0.00000000    0.00000000    0.00000000
     atom    3 type  1   force =     0.00000000    0.00000000    0.00000000
     The Hubbard contrib.    to forces
     atom    1 type  1   force =     0.00000000    0.00000000    0.00000000
     atom    2 type  1   force =     0.00000000    0.00000000    0.00000000
     atom    3 type  1   force =     0.00000000    0.00000000    0.00000000
     The SCF correction term to forces
     atom    1 type  1   force =     0.00000000    0.00000000    0.00000000
     atom    2 type  1   force =     0.00001315    0.00000000    0.00000000
     atom    3 type  1   force =    -0.00000000    0.00000000    0.00000000

     Total force =     0.046196     Total SCF correction =     0.000013

     BFGS Geometry Optimization

     number of scf cycles    =   1
     number of bfgs steps    =   0

     energy   new            =      -3.3126216025 Ry

     new trust radius        =       0.0461959290 bohr
     new conv_thr            =       0.0000000100 Ry


ATOMIC_POSITIONS (angstrom)
H        0.000000000   0.000000000   0.000000000    0   0   0
H        0.775554167   0.000000000   0.000000000
H        3.000000000   0.000000000   0.000000000    0   0   0



     Writing output data file initial.save/
     NEW-OLD atomic charge density approx. for the potential

     negative rho (up, down):  8.016E-03 1.512E-01

     total cpu time spent up to now is        9.2 secs

     Self-consistent Calculation

     iteration #  1     ecut=    20.00 Ry     beta= 0.30
     Davidson diagonalization with overlap
     ethr =  1.00E-06,  avg # of iterations =  3.5

     negative rho (up, down):  8.165E-03 2.143E-01

     total cpu time spent up to now is        9.5 secs

     total energy              =      -3.31448156 Ry
     Harris-Foulkes estimate   =      -3.31426023 Ry
     estimated scf accuracy    <       0.00022281 Ry

     total magnetization       =     1.00 Bohr mag/cell
     absolute magnetization    =     1.02 Bohr mag/cell

     iteration #  2     ecut=    20.00 Ry     beta= 0.30
     Davidson diagonalization with overlap
     ethr =  7.43E-06,  avg # of iterations =  1.0

     negative rho (up, down):  8.306E-03 2.151E-01

     total cpu time spent up to now is        9.8 secs

     total energy              =      -3.31465139 Ry
     Harris-Foulkes estimate   =      -3.31448646 Ry
     estimated scf accuracy    <       0.00007589 Ry

     total magnetization       =     1.00 Bohr mag/cell
     absolute magnetization    =     1.01 Bohr mag/cell

     iteration #  3     ecut=    20.00 Ry     beta= 0.30
     Davidson diagonalization with overlap
     ethr =  2.53E-06,  avg # of iterations =  2.0

     negative rho (up, down):  8.353E-03 2.177E-01

     total cpu time spent up to now is       10.1 secs

     total energy              =      -3.31475820 Ry
     Harris-Foulkes estimate   =      -3.31465986 Ry
     estimated scf accuracy    <       0.00000143 Ry

     total magnetization       =     1.00 Bohr mag/cell
     absolute magnetization    =     1.01 Bohr mag/cell

     iteration #  4     ecut=    20.00 Ry     beta= 0.30
     Davidson diagonalization with overlap
     ethr =  4.75E-08,  avg # of iterations =  2.0

     negative rho (up, down):  8.385E-03 2.190E-01

     total cpu time spent up to now is       10.3 secs

     total energy              =      -3.31476846 Ry
     Harris-Foulkes estimate   =      -3.31475847 Ry
     estimated scf accuracy    <       0.00000009 Ry

     total magnetization       =     1.00 Bohr mag/cell
     absolute magnetization    =     1.01 Bohr mag/cell

     iteration #  5     ecut=    20.00 Ry     beta= 0.30
     Davidson diagonalization with overlap
     ethr =  2.93E-09,  avg # of iterations =  1.5

     negative rho (up, down):  8.405E-03 2.203E-01

     total cpu time spent up to now is       10.6 secs

     total energy              =      -3.31479155 Ry
     Harris-Foulkes estimate   =      -3.31476847 Ry
     estimated scf accuracy    <       0.00000004 Ry

     total magnetization       =     1.00 Bohr mag/cell
     absolute magnetization    =     1.01 Bohr mag/cell

     iteration #  6     ecut=    20.00 Ry     beta= 0.30
     Davidson diagonalization with overlap
     ethr =  1.29E-09,  avg # of iterations =  2.0

     negative rho (up, down):  8.422E-03 2.211E-01

     total cpu time spent up to now is       10.9 secs

     total energy              =      -3.31483061 Ry
     Harris-Foulkes estimate   =      -3.31479158 Ry
     estimated scf accuracy    <       0.00000002 Ry

     total magnetization       =     1.00 Bohr mag/cell
     absolute magnetization    =     1.01 Bohr mag/cell

     iteration #  7     ecut=    20.00 Ry     beta= 0.30
     Davidson diagonalization with overlap
     ethr =  6.23E-10,  avg # of iterations =  2.0

     negative rho (up, down):  8.461E-03 2.215E-01

     Magnetic moment per site:
     atom:    1    charge:    0.2256    magn:    0.0041    constr:    0.0000
     atom:    2    charge:    0.2190    magn:   -0.0004    constr:    0.0000
     atom:    3    charge:    0.1509    magn:    0.1505    constr:    0.0000

     total cpu time spent up to now is       11.2 secs

     End of self-consistent calculation

 ------ SPIN UP ------------


          k = 0.0000 0.0000 0.0000 (  3057 PWs)   bands (ev):

   -10.1773  -7.5490  -0.8717  -0.0115   0.2867   1.3334

     occupation numbers 
     1.0000   1.0000   0.0000   0.0000   0.0000   0.0000

 ------ SPIN DOWN ----------


          k = 0.0000 0.0000 0.0000 (  3057 PWs)   bands (ev):

   -10.0687  -2.0383  -0.6817   0.3936   1.7232   2.0695

     occupation numbers 
     1.0000   0.0000   0.0000   0.0000   0.0000   0.0000

     the Fermi energy is    -4.0539 ev

!    total energy              =      -3.31481890 Ry
     Harris-Foulkes estimate   =      -3.31483063 Ry
     estimated scf accuracy    <          2.4E-09 Ry

     The total energy is the sum of the following terms:

     one-electron contribution =      -4.58014172 Ry
     hartree contribution      =       2.51705023 Ry
     xc contribution           =      -1.94582782 Ry
     ewald contribution        =       0.69410041 Ry
     smearing contrib. (-TS)   =      -0.00000000 Ry

     total magnetization       =     1.00 Bohr mag/cell
     absolute magnetization    =     1.01 Bohr mag/cell

     convergence has been achieved in   7 iterations

     Forces acting on atoms (cartesian axes, Ry/au):

     atom    1 type  1   force =     0.01916250    0.00000000    0.00000000
     atom    2 type  1   force =    -0.02253904    0.00000000    0.00000000
     atom    3 type  1   force =     0.00337654    0.00000000    0.00000000
     The non-local contrib.  to forces
     atom    1 type  1   force =     0.06576173    0.00000000    0.00000000
     atom    2 type  1   force =    -0.06500957    0.00000000    0.00000000
     atom    3 type  1   force =    -0.00027913    0.00000000    0.00000000
     The ionic contribution  to forces
     atom    1 type  1   force =    -1.03034863    0.00000000   -0.00000000
     atom    2 type  1   force =     0.80507280   -0.00000000   -0.00000000
     atom    3 type  1   force =     0.22527583    0.00000000   -0.00000000
     The local contribution  to forces
     atom    1 type  1   force =     0.98484216    0.00000000    0.00000000
     atom    2 type  1   force =    -0.76149953   -0.00000000    0.00000000
     atom    3 type  1   force =    -0.22043648   -0.00000000    0.00000000
     The core correction contribution to forces
     atom    1 type  1   force =     0.00000000    0.00000000    0.00000000
     atom    2 type  1   force =     0.00000000    0.00000000    0.00000000
     atom    3 type  1   force =     0.00000000    0.00000000    0.00000000
     The Hubbard contrib.    to forces
     atom    1 type  1   force =     0.00000000    0.00000000    0.00000000
     atom    2 type  1   force =     0.00000000    0.00000000    0.00000000
     atom    3 type  1   force =     0.00000000    0.00000000    0.00000000
     The SCF correction term to forces
     atom    1 type  1   force =    -0.00000000   -0.00000000    0.00000000
     atom    2 type  1   force =    -0.00003462    0.00000000    0.00000000
     atom    3 type  1   force =    -0.00000000   -0.00000000    0.00000000

     Total force =     0.022539     Total SCF correction =     0.000035

     number of scf cycles    =   2
     number of bfgs steps    =   1

     energy   old            =      -3.3126216025 Ry
     energy   new            =      -3.3148189042 Ry

     CASE: energy  _new < energy  _old

     new trust radius        =       0.0440130532 bohr
     new conv_thr            =       0.0000000022 Ry


ATOMIC_POSITIONS (angstrom)
H        0.000000000   0.000000000   0.000000000    0   0   0
H        0.752263463   0.000000000   0.000000000
H        3.000000000   0.000000000   0.000000000    0   0   0



     Writing output data file initial.save/
     NEW-OLD atomic charge density approx. for the potential

     negative rho (up, down):  8.435E-03 1.558E-01

     total cpu time spent up to now is       11.5 secs

     Self-consistent Calculation

     iteration #  1     ecut=    20.00 Ry     beta= 0.30
     Davidson diagonalization with overlap
     ethr =  1.00E-06,  avg # of iterations =  3.0

     negative rho (up, down):  8.582E-03 3.161E-01

     total cpu time spent up to now is       11.8 secs

     total energy              =      -3.31536476 Ry
     Harris-Foulkes estimate   =      -3.31520159 Ry
     estimated scf accuracy    <       0.00022171 Ry

     total magnetization       =     1.00 Bohr mag/cell
     absolute magnetization    =     1.01 Bohr mag/cell

     iteration #  2     ecut=    20.00 Ry     beta= 0.30
     Davidson diagonalization with overlap
     ethr =  7.39E-06,  avg # of iterations =  1.0

     negative rho (up, down):  8.719E-03 2.978E-01

     total cpu time spent up to now is       12.1 secs

     total energy              =      -3.31546201 Ry
     Harris-Foulkes estimate   =      -3.31536951 Ry
     estimated scf accuracy    <       0.00007686 Ry

     total magnetization       =     1.00 Bohr mag/cell
     absolute magnetization    =     1.01 Bohr mag/cell

     iteration #  3     ecut=    20.00 Ry     beta= 0.30
     Davidson diagonalization with overlap
     ethr =  2.56E-06,  avg # of iterations =  2.0

     negative rho (up, down):  8.761E-03 2.792E-01

     total cpu time spent up to now is       12.4 secs

     total energy              =      -3.31558328 Ry
     Harris-Foulkes estimate   =      -3.31547065 Ry
     estimated scf accuracy    <       0.00000138 Ry

     total magnetization       =     1.00 Bohr mag/cell
     absolute magnetization    =     1.01 Bohr mag/cell

     iteration #  4     ecut=    20.00 Ry     beta= 0.30
     Davidson diagonalization with overlap
     ethr =  4.59E-08,  avg # of iterations =  1.5

     negative rho (up, down):  8.792E-03 2.593E-01

     total cpu time spent up to now is       12.6 secs

     total energy              =      -3.31573204 Ry
     Harris-Foulkes estimate   =      -3.31558345 Ry
     estimated scf accuracy    <       0.00000012 Ry

     total magnetization       =     1.00 Bohr mag/cell
     absolute magnetization    =     1.01 Bohr mag/cell

     iteration #  5     ecut=    20.00 Ry     beta= 0.30
     Davidson diagonalization with overlap
     ethr =  3.84E-09,  avg # of iterations =  2.0

     negative rho (up, down):  8.814E-03 2.431E-01

     total cpu time spent up to now is       12.9 secs

     total energy              =      -3.31575322 Ry
     Harris-Foulkes estimate   =      -3.31573218 Ry
     estimated scf accuracy    <       0.00000003 Ry

     total magnetization       =     1.00 Bohr mag/cell
     absolute magnetization    =     1.01 Bohr mag/cell

     iteration #  6     ecut=    20.00 Ry     beta= 0.30
     Davidson diagonalization with overlap
     ethr =  9.06E-10,  avg # of iterations =  2.0

     negative rho (up, down):  8.829E-03 2.325E-01

     total cpu time spent up to now is       13.2 secs

     total energy              =      -3.31569604 Ry
     Harris-Foulkes estimate   =      -3.31575327 Ry
     estimated scf accuracy    <       0.00000001 Ry

     total magnetization       =     1.00 Bohr mag/cell
     absolute magnetization    =     1.01 Bohr mag/cell

     iteration #  7     ecut=    20.00 Ry     beta= 0.30
     Davidson diagonalization with overlap
     ethr =  4.00E-10,  avg # of iterations =  2.0

     negative rho (up, down):  8.841E-03 2.284E-01

     total cpu time spent up to now is       13.5 secs

     total energy              =      -3.31568537 Ry
     Harris-Foulkes estimate   =      -3.31569607 Ry
     estimated scf accuracy    <          2.3E-09 Ry

     total magnetization       =     1.00 Bohr mag/cell
     absolute magnetization    =     1.01 Bohr mag/cell

     iteration #  8     ecut=    20.00 Ry     beta= 0.30
     Davidson diagonalization with overlap
     ethr =  7.62E-11,  avg # of iterations =  2.5

     negative rho (up, down):  8.869E-03 2.215E-01

     Magnetic moment per site:
     atom:    1    charge:    0.2325    magn:    0.0037    constr:    0.0000
     atom:    2    charge:    0.2185    magn:   -0.0003    constr:    0.0000
     atom:    3    charge:    0.1509    magn:    0.1506    constr:    0.0000

     total cpu time spent up to now is       13.8 secs

     End of self-consistent calculation

 ------ SPIN UP ------------


          k = 0.0000 0.0000 0.0000 (  3057 PWs)   bands (ev):

   -10.2762  -7.5598  -0.8696  -0.0085   0.2748   1.3911

     occupation numbers 
     1.0000   1.0000   0.0000   0.0000   0.0000   0.0000

 ------ SPIN DOWN ----------


          k = 0.0000 0.0000 0.0000 (  3057 PWs)   bands (ev):

   -10.1782  -2.0089  -0.6757   0.3769   1.7766   2.0872

     occupation numbers 
     1.0000   0.0000   0.0000   0.0000   0.0000   0.0000

     the Fermi energy is    -4.0945 ev

!    total energy              =      -3.31563442 Ry
     Harris-Foulkes estimate   =      -3.31568538 Ry
     estimated scf accuracy    <          1.1E-09 Ry

     The total energy is the sum of the following terms:

     one-electron contribution =      -4.62840235 Ry
     hartree contribution      =       2.54264364 Ry
     xc contribution           =      -1.96072164 Ry
     ewald contribution        =       0.73084593 Ry
     smearing contrib. (-TS)   =      -0.00000000 Ry

     total magnetization       =     1.00 Bohr mag/cell
     absolute magnetization    =     1.01 Bohr mag/cell

     convergence has been achieved in   8 iterations

     Forces acting on atoms (cartesian axes, Ry/au):

     atom    1 type  1   force =    -0.00773096    0.00000000    0.00000000
     atom    2 type  1   force =     0.00474306    0.00000000    0.00000000
     atom    3 type  1   force =     0.00298790    0.00000000    0.00000000
     The non-local contrib.  to forces
     atom    1 type  1   force =     0.07012719    0.00000000    0.00000000
     atom    2 type  1   force =    -0.06921277    0.00000000    0.00000000
     atom    3 type  1   force =    -0.00025077    0.00000000    0.00000000
     The ionic contribution  to forces
     atom    1 type  1   force =    -1.08855524   -0.00000000   -0.00000000
     atom    2 type  1   force =     0.86556328    0.00000000   -0.00000000
     atom    3 type  1   force =     0.22299196   -0.00000000   -0.00000000
     The local contribution  to forces
     atom    1 type  1   force =     1.01166835   -0.00000000    0.00000000
     atom    2 type  1   force =    -0.79060085   -0.00000000    0.00000000
     atom    3 type  1   force =    -0.21774249    0.00000000    0.00000000
     The core correction contribution to forces
     atom    1 type  1   force =     0.00000000    0.00000000    0.00000000
     atom    2 type  1   force =     0.00000000    0.00000000    0.00000000
     atom    3 type  1   force =     0.00000000    0.00000000    0.00000000
     The Hubbard contrib.    to forces
     atom    1 type  1   force =     0.00000000    0.00000000    0.00000000
     atom    2 type  1   force =     0.00000000    0.00000000    0.00000000
     atom    3 type  1   force =     0.00000000    0.00000000    0.00000000
     The SCF correction term to forces
     atom    1 type  1   force =    -0.00000000   -0.00000000    0.00000000
     atom    2 type  1   force =    -0.00004097    0.00000000    0.00000000
     atom    3 type  1   force =    -0.00000000   -0.00000000    0.00000000

     Total force =     0.004743     Total SCF correction =     0.000041

     number of scf cycles    =   3
     number of bfgs steps    =   2

     energy   old            =      -3.3148189042 Ry
     energy   new            =      -3.3156344213 Ry

     CASE: energy  _new < energy  _old

     new trust radius        =       0.0076517811 bohr
     new conv_thr            =       0.0000000005 Ry


ATOMIC_POSITIONS (angstrom)
H        0.000000000   0.000000000   0.000000000    0   0   0
H        0.756312611   0.000000000   0.000000000
H        3.000000000   0.000000000   0.000000000    0   0   0



     Writing output data file initial.save/
     NEW-OLD atomic charge density approx. for the potential

     negative rho (up, down):  8.870E-03 1.604E-01

     total cpu time spent up to now is       14.1 secs

     Self-consistent Calculation

     iteration #  1     ecut=    20.00 Ry     beta= 0.30
     Davidson diagonalization with overlap
     ethr =  1.00E-06,  avg # of iterations =  2.0

     negative rho (up, down):  8.845E-03 2.074E-01

     total cpu time spent up to now is       14.4 secs

     total energy              =      -3.31562537 Ry
     Harris-Foulkes estimate   =      -3.31566275 Ry
     estimated scf accuracy    <       0.00000670 Ry

     total magnetization       =     1.00 Bohr mag/cell
     absolute magnetization    =     1.01 Bohr mag/cell

     iteration #  2     ecut=    20.00 Ry     beta= 0.30
     Davidson diagonalization with overlap
     ethr =  2.23E-07,  avg # of iterations =  1.0

     negative rho (up, down):  8.823E-03 2.118E-01

     total cpu time spent up to now is       14.7 secs

     total energy              =      -3.31563965 Ry
     Harris-Foulkes estimate   =      -3.31562558 Ry
     estimated scf accuracy    <       0.00000245 Ry

     total magnetization       =     1.00 Bohr mag/cell
     absolute magnetization    =     1.01 Bohr mag/cell

     iteration #  3     ecut=    20.00 Ry     beta= 0.30
     Davidson diagonalization with overlap
     ethr =  8.18E-08,  avg # of iterations =  2.0

     negative rho (up, down):  8.816E-03 2.151E-01

     total cpu time spent up to now is       14.9 secs

     total energy              =      -3.31572000 Ry
     Harris-Foulkes estimate   =      -3.31564002 Ry
     estimated scf accuracy    <       0.00000005 Ry

     total magnetization       =     1.00 Bohr mag/cell
     absolute magnetization    =     1.01 Bohr mag/cell

     iteration #  4     ecut=    20.00 Ry     beta= 0.30
     Davidson diagonalization with overlap
     ethr =  1.80E-09,  avg # of iterations =  2.0

     negative rho (up, down):  8.812E-03 2.172E-01

     total cpu time spent up to now is       15.2 secs

     total energy              =      -3.31569783 Ry
     Harris-Foulkes estimate   =      -3.31572008 Ry
     estimated scf accuracy    <       0.00000002 Ry

     total magnetization       =     1.00 Bohr mag/cell
     absolute magnetization    =     1.01 Bohr mag/cell

     iteration #  5     ecut=    20.00 Ry     beta= 0.30
     Davidson diagonalization with overlap
     ethr =  6.34E-10,  avg # of iterations =  2.0

     negative rho (up, down):  8.809E-03 2.187E-01

     total cpu time spent up to now is       15.5 secs

     total energy              =      -3.31569716 Ry
     Harris-Foulkes estimate   =      -3.31569784 Ry
     estimated scf accuracy    <          3.6E-09 Ry

     total magnetization       =     1.00 Bohr mag/cell
     absolute magnetization    =     1.01 Bohr mag/cell

     iteration #  6     ecut=    20.00 Ry     beta= 0.30
     Davidson diagonalization with overlap
     ethr =  1.21E-10,  avg # of iterations =  2.0

     negative rho (up, down):  8.807E-03 2.196E-01

     total cpu time spent up to now is       15.8 secs

     total energy              =      -3.31569711 Ry
     Harris-Foulkes estimate   =      -3.31569716 Ry
     estimated scf accuracy    <          1.0E-09 Ry

     total magnetization       =     1.00 Bohr mag/cell
     absolute magnetization    =     1.01 Bohr mag/cell

     iteration #  7     ecut=    20.00 Ry     beta= 0.30
     Davidson diagonalization with overlap
     ethr =  3.39E-11,  avg # of iterations =  2.0

     negative rho (up, down):  8.801E-03 2.221E-01

     Magnetic moment per site:
     atom:    1    charge:    0.2312    magn:    0.0037    constr:    0.0000
     atom:    2    charge:    0.2187    magn:   -0.0003    constr:    0.0000
     atom:    3    charge:    0.1509    magn:    0.1506    constr:    0.0000

     total cpu time spent up to now is       16.1 secs

     End of self-consistent calculation

 ------ SPIN UP ------------


          k = 0.0000 0.0000 0.0000 (  3057 PWs)   bands (ev):

   -10.2587  -7.5589  -0.8715  -0.0101   0.2762   1.3803

     occupation numbers 
     1.0000   1.0000   0.0000   0.0000   0.0000   0.0000

 ------ SPIN DOWN ----------


          k = 0.0000 0.0000 0.0000 (  3057 PWs)   bands (ev):

   -10.1589  -2.0214  -0.6779   0.3811   1.7676   2.0768

     occupation numbers 
     1.0000   0.0000   0.0000   0.0000   0.0000   0.0000

     the Fermi energy is    -4.0909 ev

!    total energy              =      -3.31569819 Ry
     Harris-Foulkes estimate   =      -3.31569711 Ry
     estimated scf accuracy    <          2.2E-10 Ry

     The total energy is the sum of the following terms:

     one-electron contribution =      -4.61983980 Ry
     hartree contribution      =       2.53810845 Ry
     xc contribution           =      -1.95823149 Ry
     ewald contribution        =       0.72426464 Ry
     smearing contrib. (-TS)   =      -0.00000000 Ry

     total magnetization       =     1.00 Bohr mag/cell
     absolute magnetization    =     1.01 Bohr mag/cell

     convergence has been achieved in   7 iterations

     Forces acting on atoms (cartesian axes, Ry/au):

     atom    1 type  1   force =    -0.00311885    0.00000000    0.00000000
     atom    2 type  1   force =    -0.00056989    0.00000000    0.00000000
     atom    3 type  1   force =     0.00368874    0.00000000    0.00000000
     The non-local contrib.  to forces
     atom    1 type  1   force =     0.06929704    0.00000000    0.00000000
     atom    2 type  1   force =    -0.06841245    0.00000000    0.00000000
     atom    3 type  1   force =    -0.00026242    0.00000000    0.00000000
     The ionic contribution  to forces
     atom    1 type  1   force =    -1.07804638    0.00000000   -0.00000000
     atom    2 type  1   force =     0.85466221    0.00000000   -0.00000000
     atom    3 type  1   force =     0.22338417    0.00000000   -0.00000000
     The local contribution  to forces
     atom    1 type  1   force =     1.00695026   -0.00000000    0.00000000
     atom    2 type  1   force =    -0.78550532   -0.00000000    0.00000000
     atom    3 type  1   force =    -0.21812192   -0.00000000    0.00000000
     The core correction contribution to forces
     atom    1 type  1   force =     0.00000000    0.00000000    0.00000000
     atom    2 type  1   force =     0.00000000    0.00000000    0.00000000
     atom    3 type  1   force =     0.00000000    0.00000000    0.00000000
     The Hubbard contrib.    to forces
     atom    1 type  1   force =     0.00000000    0.00000000    0.00000000
     atom    2 type  1   force =     0.00000000    0.00000000    0.00000000
     atom    3 type  1   force =     0.00000000    0.00000000    0.00000000
     The SCF correction term to forces
     atom    1 type  1   force =    -0.00000000   -0.00000000    0.00000000
     atom    2 type  1   force =     0.00000242    0.00000000    0.00000000
     atom    3 type  1   force =     0.00000000   -0.00000000    0.00000000

     Total force =     0.000570     Total SCF correction =     0.000002

     bfgs converged in   4 scf cycles and   3 bfgs steps
     (criteria: energy <  1.0E-04 Ry, force <  1.0E-03 Ry/Bohr)

     End of BFGS Geometry Optimization

     Final energy   =      -3.3156981891 Ry
Begin final coordinates

ATOMIC_POSITIONS (angstrom)
H        0.000000000   0.000000000   0.000000000    0   0   0
H        0.756312611   0.000000000   0.000000000
H        3.000000000   0.000000000   0.000000000    0   0   0
End final coordinates



     Writing output data file initial.save/

     init_run     :      0.46s CPU      0.49s WALL (       1 calls)
     electrons    :     14.23s CPU     14.33s WALL (       4 calls)
     update_pot   :      0.63s CPU      0.65s WALL (       3 calls)
     forces       :      0.36s CPU      0.37s WALL (       4 calls)

     Called by init_run:
     wfcinit      :      0.05s CPU      0.05s WALL (       1 calls)
     wfcinit:atom :      0.00s CPU      0.00s WALL (       2 calls)
     wfcinit:wfcr :      0.04s CPU      0.05s WALL (       2 calls)
     potinit      :      0.21s CPU      0.22s WALL (       1 calls)
     hinit0       :      0.16s CPU      0.16s WALL (       1 calls)

     Called by electrons:
     c_bands      :      4.71s CPU      4.74s WALL (      49 calls)
     sum_band     :      1.79s CPU      1.80s WALL (      49 calls)
     v_of_rho     :      6.24s CPU      6.26s WALL (      53 calls)
     v_h          :      0.11s CPU      0.11s WALL (      53 calls)
     v_xc         :      6.13s CPU      6.16s WALL (      53 calls)
     newd         :      0.53s CPU      0.53s WALL (      53 calls)
     mix_rho      :      0.94s CPU      0.98s WALL (      49 calls)

     Called by c_bands:
     init_us_2    :      0.08s CPU      0.08s WALL (     206 calls)
     cegterg      :      4.63s CPU      4.66s WALL (      98 calls)

     Called by sum_band:
     sum_band:bec :      0.00s CPU      0.00s WALL (      98 calls)
     addusdens    :      0.30s CPU      0.30s WALL (      49 calls)

     Called by *egterg:
     h_psi        :      3.93s CPU      3.95s WALL (     300 calls)
     s_psi        :      0.09s CPU      0.09s WALL (     300 calls)
     g_psi        :      0.04s CPU      0.04s WALL (     200 calls)
     cdiaghg      :      0.04s CPU      0.04s WALL (     292 calls)
     cegterg:over :      0.22s CPU      0.22s WALL (     200 calls)
     cegterg:upda :      0.14s CPU      0.15s WALL (     200 calls)
     cegterg:last :      0.10s CPU      0.10s WALL (      99 calls)

     Called by h_psi:
     h_psi:pot    :      3.91s CPU      3.93s WALL (     300 calls)
     h_psi:calbec :      0.09s CPU      0.09s WALL (     300 calls)
     vloc_psi     :      3.73s CPU      3.75s WALL (     300 calls)
     add_vuspsi   :      0.09s CPU      0.09s WALL (     300 calls)

     General routines
     calbec       :      0.14s CPU      0.14s WALL (     430 calls)
     fft          :      1.58s CPU      1.59s WALL (    1316 calls)
     ffts         :      0.41s CPU      0.41s WALL (     204 calls)
     fftw         :      4.00s CPU      4.02s WALL (    3372 calls)
     interpolate  :      0.41s CPU      0.41s WALL (     106 calls)

     Parallel routines

     PWSCF        :     16.02s CPU     16.19s WALL


   This run was terminated on:   9:39:12  10Nov2020            

=------------------------------------------------------------------------------=
   JOB DONE.
=------------------------------------------------------------------------------=
