
     Program PWSCF v.6.4.1 starts on 10Nov2020 at  9:55: 5 

     This program is part of the open-source Quantum ESPRESSO suite
     for quantum simulation of materials; please cite
         "P. Giannozzi et al., J. Phys.:Condens. Matter 21 395502 (2009);
         "P. Giannozzi et al., J. Phys.:Condens. Matter 29 465901 (2017);
          URL http://www.quantum-espresso.org", 
     in publications or presentations arising from this work. More details at
     http://www.quantum-espresso.org/quote

     Parallel version (MPI), running on     1 processors

     MPI processes distributed on     1 nodes
     Reading input from co.pwi
Warning: card &IONS ignored
Warning: card / ignored
Warning: card &CELL ignored
Warning: card / ignored

     Current dimensions of program PWSCF are:
     Max number of different atomic species (ntypx) = 10
     Max number of k-points (npk) =  40000
     Max angular momentum in pseudopotentials (lmaxx) =  3

     Subspace diagonalization in iterative solution of the eigenvalue problem:
     a serial algorithm will be used

     Message from routine setup:
     DEPRECATED: symmetry with ibrav=0, use correct ibrav instead

     G-vector sticks info
     --------------------
     sticks:   dense  smooth     PW     G-vecs:    dense   smooth      PW
     Sum        3397    3397    853               167029   167029   20905



     bravais-lattice index     =            0
     lattice parameter (alat)  =      18.8973  a.u.
     unit-cell volume          =    7524.6225 (a.u.)^3
     number of atoms/cell      =            2
     number of atomic types    =            2
     number of electrons       =        10.00
     number of Kohn-Sham states=            5
     kinetic-energy cutoff     =      30.0000  Ry
     charge density cutoff     =     120.0000  Ry
     convergence threshold     =      1.0E-06
     mixing beta               =       0.7000
     number of iterations used =            8  plain     mixing
     Exchange-correlation      = PBE ( 1  4  3  4 0 0)

     celldm(1)=  18.897261  celldm(2)=   0.000000  celldm(3)=   0.000000
     celldm(4)=   0.000000  celldm(5)=   0.000000  celldm(6)=   0.000000

     crystal axes: (cart. coord. in units of alat)
               a(1) = (   1.000000   0.000000   0.000000 )  
               a(2) = (   0.000000   1.000000   0.000000 )  
               a(3) = (   0.000000   0.000000   1.115034 )  

     reciprocal axes: (cart. coord. in units 2 pi/alat)
               b(1) = (  1.000000  0.000000  0.000000 )  
               b(2) = (  0.000000  1.000000  0.000000 )  
               b(3) = (  0.000000  0.000000  0.896834 )  


     PseudoPot. # 1 for O  read from file:
     /home/xing/datas/pseudo/O.pbe-n-rrkjus_psl.1.0.0.UPF
     MD5 check sum: 91400c9766925bcf19f520983a725ff0
     Pseudo is Ultrasoft + core correction, Zval =  6.0
     Generated using "atomic" code by A. Dal Corso v.6.3MaX
     Using radial grid of 1095 points,  4 beta functions with: 
                l(1) =   0
                l(2) =   0
                l(3) =   1
                l(4) =   1
     Q(r) pseudized with 0 coefficients 


     PseudoPot. # 2 for C  read from file:
     /home/xing/datas/pseudo/C.pbe-n-rrkjus_psl.1.0.0.UPF
     MD5 check sum: 1fdd950c42eb37d8afe3dd2f8d12311e
     Pseudo is Ultrasoft + core correction, Zval =  4.0
     Generated using "atomic" code by A. Dal Corso v.6.3MaX
     Using radial grid of 1073 points,  4 beta functions with: 
                l(1) =   0
                l(2) =   0
                l(3) =   1
                l(4) =   1
     Q(r) pseudized with 0 coefficients 


     atomic species   valence    mass     pseudopotential
        O              6.00    15.99900     O ( 1.00)
        C              4.00    12.01100     C ( 1.00)

      8 Sym. Ops. (no inversion) found


                                    s                        frac. trans.

      isym =  1     identity                                     

 cryst.   s( 1) = (     1          0          0      )
                  (     0          1          0      )
                  (     0          0          1      )

 cart.    s( 1) = (  1.0000000  0.0000000  0.0000000 )
                  (  0.0000000  1.0000000  0.0000000 )
                  (  0.0000000  0.0000000  1.0000000 )


      isym =  2     180 deg rotation - cart. axis [0,0,1]        

 cryst.   s( 2) = (    -1          0          0      )
                  (     0         -1          0      )
                  (     0          0          1      )

 cart.    s( 2) = ( -1.0000000  0.0000000  0.0000000 )
                  (  0.0000000 -1.0000000  0.0000000 )
                  (  0.0000000  0.0000000  1.0000000 )


      isym =  3      90 deg rotation - cart. axis [0,0,-1]       

 cryst.   s( 3) = (     0         -1          0      )
                  (     1          0          0      )
                  (     0          0          1      )

 cart.    s( 3) = (  0.0000000  1.0000000  0.0000000 )
                  ( -1.0000000  0.0000000  0.0000000 )
                  (  0.0000000  0.0000000  1.0000000 )


      isym =  4      90 deg rotation - cart. axis [0,0,1]        

 cryst.   s( 4) = (     0          1          0      )
                  (    -1          0          0      )
                  (     0          0          1      )

 cart.    s( 4) = (  0.0000000 -1.0000000  0.0000000 )
                  (  1.0000000  0.0000000  0.0000000 )
                  (  0.0000000  0.0000000  1.0000000 )


      isym =  5     inv. 180 deg rotation - cart. axis [0,1,0]   

 cryst.   s( 5) = (     1          0          0      )
                  (     0         -1          0      )
                  (     0          0          1      )

 cart.    s( 5) = (  1.0000000  0.0000000  0.0000000 )
                  (  0.0000000 -1.0000000  0.0000000 )
                  (  0.0000000  0.0000000  1.0000000 )


      isym =  6     inv. 180 deg rotation - cart. axis [1,0,0]   

 cryst.   s( 6) = (    -1          0          0      )
                  (     0          1          0      )
                  (     0          0          1      )

 cart.    s( 6) = ( -1.0000000  0.0000000  0.0000000 )
                  (  0.0000000  1.0000000  0.0000000 )
                  (  0.0000000  0.0000000  1.0000000 )


      isym =  7     inv. 180 deg rotation - cart. axis [1,1,0]   

 cryst.   s( 7) = (     0         -1          0      )
                  (    -1          0          0      )
                  (     0          0          1      )

 cart.    s( 7) = (  0.0000000 -1.0000000  0.0000000 )
                  ( -1.0000000  0.0000000  0.0000000 )
                  (  0.0000000  0.0000000  1.0000000 )


      isym =  8     inv. 180 deg rotation - cart. axis [1,-1,0]  

 cryst.   s( 8) = (     0          1          0      )
                  (     1          0          0      )
                  (     0          0          1      )

 cart.    s( 8) = (  0.0000000  1.0000000  0.0000000 )
                  (  1.0000000  0.0000000  0.0000000 )
                  (  0.0000000  0.0000000  1.0000000 )


   Cartesian axes

     site n.     atom                  positions (alat units)
         1           O   tau(   1) = (   0.5000000   0.5000000   0.6150340  )
         2           C   tau(   2) = (   0.5000000   0.5000000   0.5000000  )

   Crystallographic axes

     site n.     atom                  positions (cryst. coord.)
         1           O   tau(   1) = (  0.5000000  0.5000000  0.5515832  )
         2           C   tau(   2) = (  0.5000000  0.5000000  0.4484168  )

     number of k points=     1
                       cart. coord. in units 2pi/alat
        k(    1) = (   0.0000000   0.0000000   0.0000000), wk =   2.0000000

                       cryst. coord.
        k(    1) = (   0.0000000   0.0000000   0.0000000), wk =   2.0000000

     Dense  grid:   167029 G-vectors     FFT dimensions: (  72,  72,  75)

     Dynamical RAM for                 wfc:       1.59 MB

     Dynamical RAM for     wfc (w. buffer):       1.59 MB

     Dynamical RAM for           str. fact:       5.10 MB

     Dynamical RAM for           local pot:       0.00 MB

     Dynamical RAM for          nlocal pot:       5.10 MB

     Dynamical RAM for                qrad:       1.51 MB

     Dynamical RAM for          rho,v,vnew:      16.54 MB

     Dynamical RAM for               rhoin:       5.51 MB

     Dynamical RAM for            rho*nmix:      40.78 MB

     Dynamical RAM for           G-vectors:      10.83 MB

     Dynamical RAM for          h,s,v(r/c):       0.02 MB

     Dynamical RAM for          <psi|beta>:       0.00 MB

     Dynamical RAM for                 psi:       6.37 MB

     Dynamical RAM for                hpsi:       6.37 MB

     Dynamical RAM for                spsi:       6.37 MB

     Dynamical RAM for      wfcinit/wfcrot:       5.10 MB

     Dynamical RAM for           addusdens:     112.14 MB

     Estimated static dynamical RAM per process >     109.45 MB

     Estimated max dynamical RAM per process >     221.59 MB

     Check: negative core charge=   -0.000035

     Initial potential from superposition of free atoms

     starting charge    9.99996, renormalised to   10.00000

     negative rho (up, down):  8.939E-02 0.000E+00
     Starting wfcs are    8 randomized atomic wfcs

     total cpu time spent up to now is        5.1 secs

     Self-consistent Calculation

     iteration #  1     ecut=    30.00 Ry     beta= 0.70
     Davidson diagonalization with overlap
     ethr =  1.00E-02,  avg # of iterations =  3.0

     negative rho (up, down):  1.098E-01 0.000E+00

     total cpu time spent up to now is        6.9 secs

     total energy              =     -44.56723287 Ry
     Harris-Foulkes estimate   =     -44.65760378 Ry
     estimated scf accuracy    <       0.14931578 Ry

     iteration #  2     ecut=    30.00 Ry     beta= 0.70
     Davidson diagonalization with overlap
     ethr =  1.49E-03,  avg # of iterations =  4.0

     negative rho (up, down):  1.046E-01 0.000E+00

     total cpu time spent up to now is        8.9 secs

     total energy              =     -44.55460869 Ry
     Harris-Foulkes estimate   =     -44.66689105 Ry
     estimated scf accuracy    <       0.25714962 Ry

     iteration #  3     ecut=    30.00 Ry     beta= 0.70
     Davidson diagonalization with overlap
     ethr =  1.49E-03,  avg # of iterations =  3.0

     negative rho (up, down):  1.071E-01 0.000E+00

     total cpu time spent up to now is       10.6 secs

     total energy              =     -44.61276160 Ry
     Harris-Foulkes estimate   =     -44.61989692 Ry
     estimated scf accuracy    <       0.02012571 Ry

     iteration #  4     ecut=    30.00 Ry     beta= 0.70
     Davidson diagonalization with overlap
     ethr =  2.01E-04,  avg # of iterations =  2.0

     negative rho (up, down):  1.074E-01 0.000E+00

     total cpu time spent up to now is       12.3 secs

     total energy              =     -44.61440019 Ry
     Harris-Foulkes estimate   =     -44.61509342 Ry
     estimated scf accuracy    <       0.00152584 Ry

     iteration #  5     ecut=    30.00 Ry     beta= 0.70
     Davidson diagonalization with overlap
     ethr =  1.53E-05,  avg # of iterations =  4.0

     negative rho (up, down):  1.078E-01 0.000E+00

     total cpu time spent up to now is       14.3 secs

     total energy              =     -44.61547307 Ry
     Harris-Foulkes estimate   =     -44.61609294 Ry
     estimated scf accuracy    <       0.00190191 Ry

     iteration #  6     ecut=    30.00 Ry     beta= 0.70
     Davidson diagonalization with overlap
     ethr =  1.53E-05,  avg # of iterations =  2.0

     negative rho (up, down):  1.078E-01 0.000E+00

     total cpu time spent up to now is       16.0 secs

     total energy              =     -44.61562259 Ry
     Harris-Foulkes estimate   =     -44.61565273 Ry
     estimated scf accuracy    <       0.00016444 Ry

     iteration #  7     ecut=    30.00 Ry     beta= 0.70
     Davidson diagonalization with overlap
     ethr =  1.64E-06,  avg # of iterations =  3.0

     negative rho (up, down):  1.079E-01 0.000E+00

     total cpu time spent up to now is       17.8 secs

     total energy              =     -44.61563920 Ry
     Harris-Foulkes estimate   =     -44.61565572 Ry
     estimated scf accuracy    <       0.00003930 Ry

     iteration #  8     ecut=    30.00 Ry     beta= 0.70
     Davidson diagonalization with overlap
     ethr =  3.93E-07,  avg # of iterations =  3.0

     negative rho (up, down):  1.079E-01 0.000E+00

     total cpu time spent up to now is       19.9 secs

     total energy              =     -44.61565782 Ry
     Harris-Foulkes estimate   =     -44.61566094 Ry
     estimated scf accuracy    <       0.00001126 Ry

     iteration #  9     ecut=    30.00 Ry     beta= 0.70
     Davidson diagonalization with overlap
     ethr =  1.13E-07,  avg # of iterations =  1.0

     negative rho (up, down):  1.079E-01 0.000E+00

     total cpu time spent up to now is       21.7 secs

     total energy              =     -44.61565645 Ry
     Harris-Foulkes estimate   =     -44.61565818 Ry
     estimated scf accuracy    <       0.00000521 Ry

     iteration # 10     ecut=    30.00 Ry     beta= 0.70
     Davidson diagonalization with overlap
     ethr =  5.21E-08,  avg # of iterations =  3.0

     negative rho (up, down):  1.079E-01 0.000E+00

     total cpu time spent up to now is       23.4 secs

     End of self-consistent calculation

          k = 0.0000 0.0000 0.0000 ( 20905 PWs)   bands (ev):

   -29.2677 -14.0527 -11.5384 -11.5384  -8.9056

     occupation numbers 
     1.0000   1.0000   1.0000   1.0000   1.0000

     highest occupied level (ev):    -8.9056

!    total energy              =     -44.61565777 Ry
     Harris-Foulkes estimate   =     -44.61565817 Ry
     estimated scf accuracy    <       0.00000055 Ry

     The total energy is the sum of the following terms:

     one-electron contribution =     -83.59750523 Ry
     hartree contribution      =      42.91211540 Ry
     xc contribution           =     -11.63461701 Ry
     ewald contribution        =       7.70434907 Ry

     convergence has been achieved in  10 iterations

     Writing output data file co.save/

     init_run     :      3.71s CPU      3.92s WALL (       1 calls)
     electrons    :     16.18s CPU     18.38s WALL (       1 calls)

     Called by init_run:
     wfcinit      :      0.26s CPU      0.26s WALL (       1 calls)
     wfcinit:atom :      0.01s CPU      0.01s WALL (       1 calls)
     wfcinit:wfcr :      0.23s CPU      0.23s WALL (       1 calls)
     potinit      :      0.89s CPU      0.92s WALL (       1 calls)
     hinit0       :      2.14s CPU      2.16s WALL (       1 calls)

     Called by electrons:
     c_bands      :      4.88s CPU      4.90s WALL (      10 calls)
     sum_band     :      4.36s CPU      5.43s WALL (      10 calls)
     v_of_rho     :      4.04s CPU      4.08s WALL (      11 calls)
     v_h          :      0.19s CPU      0.20s WALL (      11 calls)
     v_xc         :      3.85s CPU      3.87s WALL (      11 calls)
     newd         :      2.87s CPU      4.05s WALL (      11 calls)
     mix_rho      :      0.56s CPU      0.62s WALL (      10 calls)

     Called by c_bands:
     init_us_2    :      0.20s CPU      0.20s WALL (      21 calls)
     cegterg      :      4.61s CPU      4.63s WALL (      10 calls)

     Called by sum_band:
     sum_band:bec :      0.00s CPU      0.00s WALL (      10 calls)
     addusdens    :      3.10s CPU      4.16s WALL (      10 calls)

     Called by *egterg:
     h_psi        :      4.04s CPU      4.05s WALL (      39 calls)
     s_psi        :      0.22s CPU      0.22s WALL (      39 calls)
     g_psi        :      0.03s CPU      0.03s WALL (      28 calls)
     cdiaghg      :      0.01s CPU      0.01s WALL (      38 calls)
     cegterg:over :      0.22s CPU      0.22s WALL (      28 calls)
     cegterg:upda :      0.16s CPU      0.16s WALL (      28 calls)
     cegterg:last :      0.07s CPU      0.07s WALL (      10 calls)

     Called by h_psi:
     h_psi:pot    :      4.02s CPU      4.03s WALL (      39 calls)
     h_psi:calbec :      0.22s CPU      0.22s WALL (      39 calls)
     vloc_psi     :      3.59s CPU      3.60s WALL (      39 calls)
     add_vuspsi   :      0.22s CPU      0.22s WALL (      39 calls)

     General routines
     calbec       :      0.29s CPU      0.29s WALL (      49 calls)
     fft          :      1.69s CPU      1.70s WALL (     121 calls)
     ffts         :      0.15s CPU      0.15s WALL (      10 calls)
     fftw         :      3.66s CPU      3.67s WALL (     372 calls)

     Parallel routines

     PWSCF        :     21.04s CPU     23.49s WALL


   This run was terminated on:   9:55:28  10Nov2020            

=------------------------------------------------------------------------------=
   JOB DONE.
=------------------------------------------------------------------------------=
