
     Program PWSCF v.6.4.1 starts on 19Oct2020 at 15:18:15 

     This program is part of the open-source Quantum ESPRESSO suite
     for quantum simulation of materials; please cite
         "P. Giannozzi et al., J. Phys.:Condens. Matter 21 395502 (2009);
         "P. Giannozzi et al., J. Phys.:Condens. Matter 29 465901 (2017);
          URL http://www.quantum-espresso.org", 
     in publications or presentations arising from this work. More details at
     http://www.quantum-espresso.org/quote

     Parallel version (MPI), running on     4 processors

     MPI processes distributed on     1 nodes
     R & G space division:  proc/nbgrp/npool/nimage =       4
     Reading input from co.pwi
Warning: card &IONS ignored
Warning: card / ignored
Warning: card &CELL ignored
Warning: card / ignored

     Current dimensions of program PWSCF are:
     Max number of different atomic species (ntypx) = 10
     Max number of k-points (npk) =  40000
     Max angular momentum in pseudopotentials (lmaxx) =  3

     Subspace diagonalization in iterative solution of the eigenvalue problem:
     a serial algorithm will be used

     Message from routine setup:
     DEPRECATED: symmetry with ibrav=0, use correct ibrav instead

     Parallelization info
     --------------------
     sticks:   dense  smooth     PW     G-vecs:    dense   smooth      PW
     Min         849     849    213                41755    41755    5225
     Max         850     850    214                41760    41760    5228
     Sum        3397    3397    853               167029   167029   20905



     bravais-lattice index     =            0
     lattice parameter (alat)  =      18.8973  a.u.
     unit-cell volume          =    7524.6225 (a.u.)^3
     number of atoms/cell      =            2
     number of atomic types    =            2
     number of electrons       =        10.00
     number of Kohn-Sham states=            5
     kinetic-energy cutoff     =      30.0000  Ry
     charge density cutoff     =     120.0000  Ry
     convergence threshold     =      1.0E-06
     mixing beta               =       0.7000
     number of iterations used =            8  plain     mixing
     Exchange-correlation      = PBE ( 1  4  3  4 0 0)

     celldm(1)=  18.897261  celldm(2)=   0.000000  celldm(3)=   0.000000
     celldm(4)=   0.000000  celldm(5)=   0.000000  celldm(6)=   0.000000

     crystal axes: (cart. coord. in units of alat)
               a(1) = (   1.000000   0.000000   0.000000 )  
               a(2) = (   0.000000   1.000000   0.000000 )  
               a(3) = (   0.000000   0.000000   1.115034 )  

     reciprocal axes: (cart. coord. in units 2 pi/alat)
               b(1) = (  1.000000  0.000000  0.000000 )  
               b(2) = (  0.000000  1.000000  0.000000 )  
               b(3) = (  0.000000  0.000000  0.896834 )  


     PseudoPot. # 1 for O  read from file:
     /home/xing/datas/pseudo/O.pbe-n-rrkjus_psl.1.0.0.UPF
     MD5 check sum: 91400c9766925bcf19f520983a725ff0
     Pseudo is Ultrasoft + core correction, Zval =  6.0
     Generated using "atomic" code by A. Dal Corso v.6.3MaX
     Using radial grid of 1095 points,  4 beta functions with: 
                l(1) =   0
                l(2) =   0
                l(3) =   1
                l(4) =   1
     Q(r) pseudized with 0 coefficients 


     PseudoPot. # 2 for C  read from file:
     /home/xing/datas/pseudo/C.pbe-n-rrkjus_psl.1.0.0.UPF
     MD5 check sum: 1fdd950c42eb37d8afe3dd2f8d12311e
     Pseudo is Ultrasoft + core correction, Zval =  4.0
     Generated using "atomic" code by A. Dal Corso v.6.3MaX
     Using radial grid of 1073 points,  4 beta functions with: 
                l(1) =   0
                l(2) =   0
                l(3) =   1
                l(4) =   1
     Q(r) pseudized with 0 coefficients 


     atomic species   valence    mass     pseudopotential
        O              6.00    15.99900     O ( 1.00)
        C              4.00    12.01100     C ( 1.00)

      8 Sym. Ops. (no inversion) found


                                    s                        frac. trans.

      isym =  1     identity                                     

 cryst.   s( 1) = (     1          0          0      )
                  (     0          1          0      )
                  (     0          0          1      )

 cart.    s( 1) = (  1.0000000  0.0000000  0.0000000 )
                  (  0.0000000  1.0000000  0.0000000 )
                  (  0.0000000  0.0000000  1.0000000 )


      isym =  2     180 deg rotation - cart. axis [0,0,1]        

 cryst.   s( 2) = (    -1          0          0      )
                  (     0         -1          0      )
                  (     0          0          1      )

 cart.    s( 2) = ( -1.0000000  0.0000000  0.0000000 )
                  (  0.0000000 -1.0000000  0.0000000 )
                  (  0.0000000  0.0000000  1.0000000 )


      isym =  3      90 deg rotation - cart. axis [0,0,-1]       

 cryst.   s( 3) = (     0         -1          0      )
                  (     1          0          0      )
                  (     0          0          1      )

 cart.    s( 3) = (  0.0000000  1.0000000  0.0000000 )
                  ( -1.0000000  0.0000000  0.0000000 )
                  (  0.0000000  0.0000000  1.0000000 )


      isym =  4      90 deg rotation - cart. axis [0,0,1]        

 cryst.   s( 4) = (     0          1          0      )
                  (    -1          0          0      )
                  (     0          0          1      )

 cart.    s( 4) = (  0.0000000 -1.0000000  0.0000000 )
                  (  1.0000000  0.0000000  0.0000000 )
                  (  0.0000000  0.0000000  1.0000000 )


      isym =  5     inv. 180 deg rotation - cart. axis [0,1,0]   

 cryst.   s( 5) = (     1          0          0      )
                  (     0         -1          0      )
                  (     0          0          1      )

 cart.    s( 5) = (  1.0000000  0.0000000  0.0000000 )
                  (  0.0000000 -1.0000000  0.0000000 )
                  (  0.0000000  0.0000000  1.0000000 )


      isym =  6     inv. 180 deg rotation - cart. axis [1,0,0]   

 cryst.   s( 6) = (    -1          0          0      )
                  (     0          1          0      )
                  (     0          0          1      )

 cart.    s( 6) = ( -1.0000000  0.0000000  0.0000000 )
                  (  0.0000000  1.0000000  0.0000000 )
                  (  0.0000000  0.0000000  1.0000000 )


      isym =  7     inv. 180 deg rotation - cart. axis [1,1,0]   

 cryst.   s( 7) = (     0         -1          0      )
                  (    -1          0          0      )
                  (     0          0          1      )

 cart.    s( 7) = (  0.0000000 -1.0000000  0.0000000 )
                  ( -1.0000000  0.0000000  0.0000000 )
                  (  0.0000000  0.0000000  1.0000000 )


      isym =  8     inv. 180 deg rotation - cart. axis [1,-1,0]  

 cryst.   s( 8) = (     0          1          0      )
                  (     1          0          0      )
                  (     0          0          1      )

 cart.    s( 8) = (  0.0000000  1.0000000  0.0000000 )
                  (  1.0000000  0.0000000  0.0000000 )
                  (  0.0000000  0.0000000  1.0000000 )


   Cartesian axes

     site n.     atom                  positions (alat units)
         1           O   tau(   1) = (   0.5000000   0.5000000   0.6150340  )
         2           C   tau(   2) = (   0.5000000   0.5000000   0.5000000  )

   Crystallographic axes

     site n.     atom                  positions (cryst. coord.)
         1           O   tau(   1) = (  0.5000000  0.5000000  0.5515832  )
         2           C   tau(   2) = (  0.5000000  0.5000000  0.4484168  )

     number of k points=     1
                       cart. coord. in units 2pi/alat
        k(    1) = (   0.0000000   0.0000000   0.0000000), wk =   2.0000000

                       cryst. coord.
        k(    1) = (   0.0000000   0.0000000   0.0000000), wk =   2.0000000

     Dense  grid:   167029 G-vectors     FFT dimensions: (  72,  72,  75)

     Dynamical RAM for                 wfc:       0.40 MB

     Dynamical RAM for     wfc (w. buffer):       0.40 MB

     Dynamical RAM for           str. fact:       1.27 MB

     Dynamical RAM for           local pot:       0.00 MB

     Dynamical RAM for          nlocal pot:       1.27 MB

     Dynamical RAM for                qrad:       1.51 MB

     Dynamical RAM for          rho,v,vnew:       4.17 MB

     Dynamical RAM for               rhoin:       1.39 MB

     Dynamical RAM for            rho*nmix:      10.19 MB

     Dynamical RAM for           G-vectors:       2.71 MB

     Dynamical RAM for          h,s,v(r/c):       0.02 MB

     Dynamical RAM for          <psi|beta>:       0.00 MB

     Dynamical RAM for                 psi:       1.59 MB

     Dynamical RAM for                hpsi:       1.59 MB

     Dynamical RAM for                spsi:       1.59 MB

     Dynamical RAM for      wfcinit/wfcrot:       1.28 MB

     Dynamical RAM for           addusdens:      28.04 MB

     Dynamical RAM for          addusforce:      30.27 MB

     Estimated static dynamical RAM per process >      28.58 MB

     Estimated max dynamical RAM per process >      58.85 MB

     Estimated total dynamical RAM >     235.40 MB

     Check: negative core charge=   -0.000035

     Initial potential from superposition of free atoms

     starting charge    9.99996, renormalised to   10.00000

     negative rho (up, down):  8.939E-02 0.000E+00
     Starting wfcs are    8 randomized atomic wfcs

     total cpu time spent up to now is        1.3 secs

     Self-consistent Calculation

     iteration #  1     ecut=    30.00 Ry     beta= 0.70
     Davidson diagonalization with overlap
     ethr =  1.00E-02,  avg # of iterations =  3.0

     negative rho (up, down):  1.098E-01 0.000E+00

     total cpu time spent up to now is        1.6 secs

     total energy              =     -44.56673667 Ry
     Harris-Foulkes estimate   =     -44.65752269 Ry
     estimated scf accuracy    <       0.14973485 Ry

     iteration #  2     ecut=    30.00 Ry     beta= 0.70
     Davidson diagonalization with overlap
     ethr =  1.50E-03,  avg # of iterations =  4.0

     negative rho (up, down):  1.046E-01 0.000E+00

     total cpu time spent up to now is        2.0 secs

     total energy              =     -44.55379513 Ry
     Harris-Foulkes estimate   =     -44.66792520 Ry
     estimated scf accuracy    <       0.26276477 Ry

     iteration #  3     ecut=    30.00 Ry     beta= 0.70
     Davidson diagonalization with overlap
     ethr =  1.50E-03,  avg # of iterations =  3.0

     negative rho (up, down):  1.071E-01 0.000E+00

     total cpu time spent up to now is        2.3 secs

     total energy              =     -44.61284882 Ry
     Harris-Foulkes estimate   =     -44.61976860 Ry
     estimated scf accuracy    <       0.01957863 Ry

     iteration #  4     ecut=    30.00 Ry     beta= 0.70
     Davidson diagonalization with overlap
     ethr =  1.96E-04,  avg # of iterations =  2.0

     negative rho (up, down):  1.074E-01 0.000E+00

     total cpu time spent up to now is        2.6 secs

     total energy              =     -44.61441554 Ry
     Harris-Foulkes estimate   =     -44.61510842 Ry
     estimated scf accuracy    <       0.00153045 Ry

     iteration #  5     ecut=    30.00 Ry     beta= 0.70
     Davidson diagonalization with overlap
     ethr =  1.53E-05,  avg # of iterations =  4.0

     negative rho (up, down):  1.078E-01 0.000E+00

     total cpu time spent up to now is        3.0 secs

     total energy              =     -44.61547319 Ry
     Harris-Foulkes estimate   =     -44.61608596 Ry
     estimated scf accuracy    <       0.00187606 Ry

     iteration #  6     ecut=    30.00 Ry     beta= 0.70
     Davidson diagonalization with overlap
     ethr =  1.53E-05,  avg # of iterations =  2.0

     negative rho (up, down):  1.078E-01 0.000E+00

     total cpu time spent up to now is        3.3 secs

     total energy              =     -44.61562400 Ry
     Harris-Foulkes estimate   =     -44.61565209 Ry
     estimated scf accuracy    <       0.00015743 Ry

     iteration #  7     ecut=    30.00 Ry     beta= 0.70
     Davidson diagonalization with overlap
     ethr =  1.57E-06,  avg # of iterations =  2.0

     negative rho (up, down):  1.078E-01 0.000E+00

     total cpu time spent up to now is        3.6 secs

     total energy              =     -44.61563822 Ry
     Harris-Foulkes estimate   =     -44.61565676 Ry
     estimated scf accuracy    <       0.00005257 Ry

     iteration #  8     ecut=    30.00 Ry     beta= 0.70
     Davidson diagonalization with overlap
     ethr =  5.26E-07,  avg # of iterations =  4.0

     negative rho (up, down):  1.079E-01 0.000E+00

     total cpu time spent up to now is        4.0 secs

     total energy              =     -44.61565673 Ry
     Harris-Foulkes estimate   =     -44.61566052 Ry
     estimated scf accuracy    <       0.00001113 Ry

     iteration #  9     ecut=    30.00 Ry     beta= 0.70
     Davidson diagonalization with overlap
     ethr =  1.11E-07,  avg # of iterations =  3.0

     negative rho (up, down):  1.079E-01 0.000E+00

     total cpu time spent up to now is        4.3 secs

     End of self-consistent calculation

          k = 0.0000 0.0000 0.0000 ( 20905 PWs)   bands (ev):

   -29.2710 -14.0558 -11.5412 -11.5412  -8.9057

     occupation numbers 
     1.0000   1.0000   1.0000   1.0000   1.0000

     highest occupied level (ev):    -8.9057

!    total energy              =     -44.61565787 Ry
     Harris-Foulkes estimate   =     -44.61565817 Ry
     estimated scf accuracy    <       0.00000043 Ry

     The total energy is the sum of the following terms:

     one-electron contribution =     -83.60051393 Ry
     hartree contribution      =      42.91573633 Ry
     xc contribution           =     -11.63522934 Ry
     ewald contribution        =       7.70434907 Ry

     convergence has been achieved in   9 iterations

     negative rho (up, down):  1.079E-01 0.000E+00

     Forces acting on atoms (cartesian axes, Ry/au):

     atom    1 type  1   force =     0.00000000    0.00000000    0.03584489
     atom    2 type  2   force =     0.00000000    0.00000000   -0.03584489
     The non-local contrib.  to forces
     atom    1 type  1   force =     0.00000000    0.00000000   -2.51436466
     atom    2 type  2   force =     0.00000000    0.00000000    1.18641094
     The ionic contribution  to forces
     atom    1 type  1   force =    -0.00000000   -0.00000000   10.11623058
     atom    2 type  2   force =     0.00000000    0.00000000  -10.11623058
     The local contribution  to forces
     atom    1 type  1   force =    -0.00000000   -0.00000000   -7.58008518
     atom    2 type  2   force =    -0.00000000   -0.00000000    8.89553957
     The core correction contribution to forces
     atom    1 type  1   force =    -0.00000000   -0.00000000    0.01180607
     atom    2 type  2   force =     0.00000000    0.00000000   -0.00216570
     The Hubbard contrib.    to forces
     atom    1 type  1   force =     0.00000000    0.00000000    0.00000000
     atom    2 type  2   force =     0.00000000    0.00000000    0.00000000
     The SCF correction term to forces
     atom    1 type  1   force =    -0.00000000   -0.00000000    0.00102517
     atom    2 type  2   force =     0.00000000    0.00000000   -0.00063202

     Total force =     0.050692     Total SCF correction =     0.001204

     Writing output data file co.save/

     init_run     :      0.76s CPU      0.79s WALL (       1 calls)
     electrons    :      2.97s CPU      3.02s WALL (       1 calls)
     forces       :      0.50s CPU      0.50s WALL (       1 calls)

     Called by init_run:
     wfcinit      :      0.04s CPU      0.04s WALL (       1 calls)
     wfcinit:atom :      0.00s CPU      0.00s WALL (       1 calls)
     wfcinit:wfcr :      0.04s CPU      0.04s WALL (       1 calls)
     potinit      :      0.22s CPU      0.23s WALL (       1 calls)
     hinit0       :      0.42s CPU      0.42s WALL (       1 calls)

     Called by electrons:
     c_bands      :      0.74s CPU      0.75s WALL (       9 calls)
     sum_band     :      0.87s CPU      0.88s WALL (       9 calls)
     v_of_rho     :      0.70s CPU      0.72s WALL (      10 calls)
     v_h          :      0.05s CPU      0.05s WALL (      10 calls)
     v_xc         :      0.71s CPU      0.73s WALL (      11 calls)
     newd         :      0.57s CPU      0.59s WALL (      10 calls)
     mix_rho      :      0.16s CPU      0.17s WALL (       9 calls)

     Called by c_bands:
     init_us_2    :      0.02s CPU      0.02s WALL (      19 calls)
     cegterg      :      0.71s CPU      0.72s WALL (       9 calls)

     Called by sum_band:
     sum_band:bec :      0.00s CPU      0.00s WALL (       9 calls)
     addusdens    :      0.62s CPU      0.62s WALL (       9 calls)

     Called by *egterg:
     h_psi        :      0.64s CPU      0.65s WALL (      37 calls)
     s_psi        :      0.02s CPU      0.02s WALL (      37 calls)
     g_psi        :      0.00s CPU      0.00s WALL (      27 calls)
     cdiaghg      :      0.00s CPU      0.00s WALL (      36 calls)
     cegterg:over :      0.03s CPU      0.03s WALL (      27 calls)
     cegterg:upda :      0.02s CPU      0.02s WALL (      27 calls)
     cegterg:last :      0.01s CPU      0.01s WALL (       9 calls)

     Called by h_psi:
     h_psi:pot    :      0.64s CPU      0.65s WALL (      37 calls)
     h_psi:calbec :      0.04s CPU      0.04s WALL (      37 calls)
     vloc_psi     :      0.57s CPU      0.58s WALL (      37 calls)
     add_vuspsi   :      0.02s CPU      0.02s WALL (      37 calls)

     General routines
     calbec       :      0.05s CPU      0.05s WALL (      50 calls)
     fft          :      0.46s CPU      0.46s WALL (     121 calls)
     ffts         :      0.03s CPU      0.04s WALL (       9 calls)
     fftw         :      0.52s CPU      0.53s WALL (     341 calls)

     Parallel routines
     fft_scatt_xy :      0.16s CPU      0.16s WALL (     471 calls)
     fft_scatt_yz :      0.26s CPU      0.26s WALL (     471 calls)

     PWSCF        :      4.72s CPU      4.81s WALL


   This run was terminated on:  15:18:19  19Oct2020            

=------------------------------------------------------------------------------=
   JOB DONE.
=------------------------------------------------------------------------------=
