 ANIMSTEPS   7
 CRYSTAL 
 PRIMVEC 
 12.0000002092  0.0000000000  0.0000000000
  0.0000000000  5.0000040871  0.0000000000
  0.0000000000  0.0000000000  5.0000040871
 PRIMCOORD   1
    3  1
 H    0.0000000000    0.0000000000    0.0000000000   -0.0000000000    0.0000000000    0.0000000000
 H    0.7561804200    0.0000000000    0.0000000000   -0.0004830924    0.0000000000    0.0000000000
 H    3.0000000000    0.0000000000    0.0000000000    0.0000000000    0.0000000000    0.0000000000
 PRIMCOORD   2
    3  1
 H    0.0000000000    0.0000000000    0.0000000000    0.0000000000    0.0000000000    0.0000000000
 H    1.0495201191    0.0000000000    0.0000000000   -0.1423281176    0.0000000000    0.0000000000
 H    3.0000000000    0.0000000000    0.0000000000   -0.0000000000    0.0000000000    0.0000000000
 PRIMCOORD   3
    3  1
 H    0.0000000000    0.0000000000    0.0000000000    0.0000000000    0.0000000000    0.0000000000
 H    1.2868147725    0.0000000000    0.0000000000   -0.1170951418    0.0000000000    0.0000000000
 H    3.0000000000    0.0000000000    0.0000000000   -0.0000000000    0.0000000000    0.0000000000
 PRIMCOORD   4
    3  1
 H    0.0000000000    0.0000000000    0.0000000000    0.0000000000    0.0000000000    0.0000000000
 H    1.5000000000    0.0000000000    0.0000000000    0.0000000000    0.0000000000    0.0000000000
 H    3.0000000000    0.0000000000    0.0000000000   -0.0000000000   -0.0000000000    0.0000000000
 PRIMCOORD   5
    3  1
 H    0.0000000000    0.0000000000    0.0000000000    0.0000000000    0.0000000000    0.0000000000
 H    1.7131812864    0.0000000000    0.0000000000    0.1170937555    0.0000000000    0.0000000000
 H    3.0000000000    0.0000000000    0.0000000000   -0.0000000000    0.0000000000    0.0000000000
 PRIMCOORD   6
    3  1
 H    0.0000000000    0.0000000000    0.0000000000    0.0000000000    0.0000000000    0.0000000000
 H    1.9504837659    0.0000000000    0.0000000000    0.1423277893    0.0000000000    0.0000000000
 H    3.0000000000    0.0000000000    0.0000000000   -0.0000000000    0.0000000000    0.0000000000
 PRIMCOORD   7
    3  1
 H    0.0000000000    0.0000000000    0.0000000000   -0.0000000000    0.0000000000    0.0000000000
 H    2.2438195800    0.0000000000    0.0000000000    0.0002722061    0.0000000000    0.0000000000
 H    3.0000000000    0.0000000000    0.0000000000    0.0000000000    0.0000000000    0.0000000000
