 ANIMSTEPS   7
 CRYSTAL 
 PRIMVEC 
 12.0000002092  0.0000000000  0.0000000000
  0.0000000000  5.0000040871  0.0000000000
  0.0000000000  0.0000000000  5.0000040871
 PRIMCOORD   1
    3  1
 H    0.0000000000    0.0000000000    0.0000000000   -0.0000000000    0.0000000000    0.0000000000
 H    0.7563126110    0.0000000000    0.0000000000   -0.0006446883    0.0000000000    0.0000000000
 H    3.0000000000    0.0000000000    0.0000000000    0.0000000000    0.0000000000    0.0000000000
 PRIMCOORD   2
    3  1
 H    0.0000000000    0.0000000000    0.0000000000    0.0000000000    0.0000000000    0.0000000000
 H    1.0762126573    0.0000000000    0.0000000000   -0.1444995996    0.0000000000    0.0000000000
 H    3.0000000000    0.0000000000    0.0000000000   -0.0000000000    0.0000000000    0.0000000000
 PRIMCOORD   3
    3  1
 H    0.0000000000    0.0000000000    0.0000000000    0.0000000000    0.0000000000    0.0000000000
 H    1.3053892046    0.0000000000    0.0000000000   -0.1101499313    0.0000000000    0.0000000000
 H    3.0000000000    0.0000000000    0.0000000000   -0.0000000000    0.0000000000    0.0000000000
 PRIMCOORD   4
    3  1
 H    0.0000000000    0.0000000000    0.0000000000    0.0000000000    0.0000000000    0.0000000000
 H    1.5000000000    0.0000000000    0.0000000000    0.0000000000    0.0000000000    0.0000000000
 H    3.0000000000    0.0000000000    0.0000000000   -0.0000000000   -0.0000000000    0.0000000000
 PRIMCOORD   5
    3  1
 H    0.0000000000    0.0000000000    0.0000000000    0.0000000000    0.0000000000    0.0000000000
 H    1.6946107464    0.0000000000    0.0000000000    0.1101499076    0.0000000000    0.0000000000
 H    3.0000000000    0.0000000000    0.0000000000   -0.0000000000    0.0000000000    0.0000000000
 PRIMCOORD   6
    3  1
 H    0.0000000000    0.0000000000    0.0000000000    0.0000000000    0.0000000000    0.0000000000
 H    1.9237880074    0.0000000000    0.0000000000    0.1444993344    0.0000000000    0.0000000000
 H    3.0000000000    0.0000000000    0.0000000000   -0.0000000000    0.0000000000    0.0000000000
 PRIMCOORD   7
    3  1
 H    0.0000000000    0.0000000000    0.0000000000   -0.0000000000    0.0000000000    0.0000000000
 H    2.2436873890    0.0000000000    0.0000000000   -0.0002123677    0.0000000000    0.0000000000
 H    3.0000000000    0.0000000000    0.0000000000    0.0000000000    0.0000000000    0.0000000000
