
     Program PWSCF v.6.4.1 starts on 10Nov2020 at  9:53:42 

     This program is part of the open-source Quantum ESPRESSO suite
     for quantum simulation of materials; please cite
         "P. Giannozzi et al., J. Phys.:Condens. Matter 21 395502 (2009);
         "P. Giannozzi et al., J. Phys.:Condens. Matter 29 465901 (2017);
          URL http://www.quantum-espresso.org", 
     in publications or presentations arising from this work. More details at
     http://www.quantum-espresso.org/quote

     Parallel version (MPI), running on     1 processors

     MPI processes distributed on     1 nodes
     Reading input from h2.pwi
Warning: card &CELL ignored
Warning: card / ignored

     Current dimensions of program PWSCF are:
     Max number of different atomic species (ntypx) = 10
     Max number of k-points (npk) =  40000
     Max angular momentum in pseudopotentials (lmaxx) =  3

     Subspace diagonalization in iterative solution of the eigenvalue problem:
     a serial algorithm will be used

     Message from routine setup:
     DEPRECATED: symmetry with ibrav=0, use correct ibrav instead

     G-vector sticks info
     --------------------
     sticks:   dense  smooth     PW     G-vecs:    dense   smooth      PW
     Sum        2253    2253    569                87533    87533   10997



     bravais-lattice index     =            0
     lattice parameter (alat)  =      18.8973  a.u.
     unit-cell volume          =    7245.7989 (a.u.)^3
     number of atoms/cell      =            2
     number of atomic types    =            1
     number of electrons       =         2.00
     number of Kohn-Sham states=            1
     kinetic-energy cutoff     =      20.0000  Ry
     charge density cutoff     =      80.0000  Ry
     convergence threshold     =      1.0E-06
     mixing beta               =       0.7000
     number of iterations used =            8  plain     mixing
     Exchange-correlation      = PBE ( 1  4  3  4 0 0)
     nstep                     =           50


     celldm(1)=  18.897261  celldm(2)=   0.000000  celldm(3)=   0.000000
     celldm(4)=   0.000000  celldm(5)=   0.000000  celldm(6)=   0.000000

     crystal axes: (cart. coord. in units of alat)
               a(1) = (   1.000000   0.000000   0.000000 )  
               a(2) = (   0.000000   1.000000   0.000000 )  
               a(3) = (   0.000000   0.000000   1.073717 )  

     reciprocal axes: (cart. coord. in units 2 pi/alat)
               b(1) = (  1.000000  0.000000  0.000000 )  
               b(2) = (  0.000000  1.000000  0.000000 )  
               b(3) = (  0.000000  0.000000  0.931344 )  


     PseudoPot. # 1 for H  read from file:
     /home/xing/datas/pseudo/H.pbe-rrkjus_psl.1.0.0.UPF
     MD5 check sum: 3f4114867bd07edc7f1424d066fc1888
     Pseudo is Ultrasoft, Zval =  1.0
     Generated using "atomic" code by A. Dal Corso v.6.3MaX
     Using radial grid of  929 points,  2 beta functions with: 
                l(1) =   0
                l(2) =   0
     Q(r) pseudized with 0 coefficients 


     atomic species   valence    mass     pseudopotential
        H              1.00     1.00800     H ( 1.00)

     16 Sym. Ops., with inversion, found


                                    s                        frac. trans.

      isym =  1     identity                                     

 cryst.   s( 1) = (     1          0          0      )
                  (     0          1          0      )
                  (     0          0          1      )

 cart.    s( 1) = (  1.0000000  0.0000000  0.0000000 )
                  (  0.0000000  1.0000000  0.0000000 )
                  (  0.0000000  0.0000000  1.0000000 )


      isym =  2     180 deg rotation - cart. axis [0,0,1]        

 cryst.   s( 2) = (    -1          0          0      )
                  (     0         -1          0      )
                  (     0          0          1      )

 cart.    s( 2) = ( -1.0000000  0.0000000  0.0000000 )
                  (  0.0000000 -1.0000000  0.0000000 )
                  (  0.0000000  0.0000000  1.0000000 )


      isym =  3     180 deg rotation - cart. axis [0,1,0]        

 cryst.   s( 3) = (    -1          0          0      )
                  (     0          1          0      )
                  (     0          0         -1      )

 cart.    s( 3) = ( -1.0000000  0.0000000  0.0000000 )
                  (  0.0000000  1.0000000  0.0000000 )
                  (  0.0000000  0.0000000 -1.0000000 )


      isym =  4     180 deg rotation - cart. axis [1,0,0]        

 cryst.   s( 4) = (     1          0          0      )
                  (     0         -1          0      )
                  (     0          0         -1      )

 cart.    s( 4) = (  1.0000000  0.0000000  0.0000000 )
                  (  0.0000000 -1.0000000  0.0000000 )
                  (  0.0000000  0.0000000 -1.0000000 )


      isym =  5     180 deg rotation - cart. axis [1,1,0]        

 cryst.   s( 5) = (     0          1          0      )
                  (     1          0          0      )
                  (     0          0         -1      )

 cart.    s( 5) = (  0.0000000  1.0000000  0.0000000 )
                  (  1.0000000  0.0000000  0.0000000 )
                  (  0.0000000  0.0000000 -1.0000000 )


      isym =  6     180 deg rotation - cart. axis [1,-1,0]       

 cryst.   s( 6) = (     0         -1          0      )
                  (    -1          0          0      )
                  (     0          0         -1      )

 cart.    s( 6) = (  0.0000000 -1.0000000  0.0000000 )
                  ( -1.0000000  0.0000000  0.0000000 )
                  (  0.0000000  0.0000000 -1.0000000 )


      isym =  7      90 deg rotation - cart. axis [0,0,-1]       

 cryst.   s( 7) = (     0         -1          0      )
                  (     1          0          0      )
                  (     0          0          1      )

 cart.    s( 7) = (  0.0000000  1.0000000  0.0000000 )
                  ( -1.0000000  0.0000000  0.0000000 )
                  (  0.0000000  0.0000000  1.0000000 )


      isym =  8      90 deg rotation - cart. axis [0,0,1]        

 cryst.   s( 8) = (     0          1          0      )
                  (    -1          0          0      )
                  (     0          0          1      )

 cart.    s( 8) = (  0.0000000 -1.0000000  0.0000000 )
                  (  1.0000000  0.0000000  0.0000000 )
                  (  0.0000000  0.0000000  1.0000000 )


      isym =  9     inversion                                    

 cryst.   s( 9) = (    -1          0          0      )
                  (     0         -1          0      )
                  (     0          0         -1      )

 cart.    s( 9) = ( -1.0000000  0.0000000  0.0000000 )
                  (  0.0000000 -1.0000000  0.0000000 )
                  (  0.0000000  0.0000000 -1.0000000 )


      isym = 10     inv. 180 deg rotation - cart. axis [0,0,1]   

 cryst.   s(10) = (     1          0          0      )
                  (     0          1          0      )
                  (     0          0         -1      )

 cart.    s(10) = (  1.0000000  0.0000000  0.0000000 )
                  (  0.0000000  1.0000000  0.0000000 )
                  (  0.0000000  0.0000000 -1.0000000 )


      isym = 11     inv. 180 deg rotation - cart. axis [0,1,0]   

 cryst.   s(11) = (     1          0          0      )
                  (     0         -1          0      )
                  (     0          0          1      )

 cart.    s(11) = (  1.0000000  0.0000000  0.0000000 )
                  (  0.0000000 -1.0000000  0.0000000 )
                  (  0.0000000  0.0000000  1.0000000 )


      isym = 12     inv. 180 deg rotation - cart. axis [1,0,0]   

 cryst.   s(12) = (    -1          0          0      )
                  (     0          1          0      )
                  (     0          0          1      )

 cart.    s(12) = ( -1.0000000  0.0000000  0.0000000 )
                  (  0.0000000  1.0000000  0.0000000 )
                  (  0.0000000  0.0000000  1.0000000 )


      isym = 13     inv. 180 deg rotation - cart. axis [1,1,0]   

 cryst.   s(13) = (     0         -1          0      )
                  (    -1          0          0      )
                  (     0          0          1      )

 cart.    s(13) = (  0.0000000 -1.0000000  0.0000000 )
                  ( -1.0000000  0.0000000  0.0000000 )
                  (  0.0000000  0.0000000  1.0000000 )


      isym = 14     inv. 180 deg rotation - cart. axis [1,-1,0]  

 cryst.   s(14) = (     0          1          0      )
                  (     1          0          0      )
                  (     0          0          1      )

 cart.    s(14) = (  0.0000000  1.0000000  0.0000000 )
                  (  1.0000000  0.0000000  0.0000000 )
                  (  0.0000000  0.0000000  1.0000000 )


      isym = 15     inv.  90 deg rotation - cart. axis [0,0,-1]  

 cryst.   s(15) = (     0          1          0      )
                  (    -1          0          0      )
                  (     0          0         -1      )

 cart.    s(15) = (  0.0000000 -1.0000000  0.0000000 )
                  (  1.0000000  0.0000000  0.0000000 )
                  (  0.0000000  0.0000000 -1.0000000 )


      isym = 16     inv.  90 deg rotation - cart. axis [0,0,1]   

 cryst.   s(16) = (     0         -1          0      )
                  (     1          0          0      )
                  (     0          0         -1      )

 cart.    s(16) = (  0.0000000  1.0000000  0.0000000 )
                  ( -1.0000000  0.0000000  0.0000000 )
                  (  0.0000000  0.0000000 -1.0000000 )


   Cartesian axes

     site n.     atom                  positions (alat units)
         1           H   tau(   1) = (   0.5000000   0.5000000   0.5737166  )
         2           H   tau(   2) = (   0.5000000   0.5000000   0.5000000  )

   Crystallographic axes

     site n.     atom                  positions (cryst. coord.)
         1           H   tau(   1) = (  0.5000000  0.5000000  0.5343278  )
         2           H   tau(   2) = (  0.5000000  0.5000000  0.4656722  )

     number of k points=     1
                       cart. coord. in units 2pi/alat
        k(    1) = (   0.0000000   0.0000000   0.0000000), wk =   2.0000000

                       cryst. coord.
        k(    1) = (   0.0000000   0.0000000   0.0000000), wk =   2.0000000

     Dense  grid:    87533 G-vectors     FFT dimensions: (  54,  54,  60)

     Dynamical RAM for                 wfc:       0.17 MB

     Dynamical RAM for     wfc (w. buffer):       0.17 MB

     Dynamical RAM for           str. fact:       1.34 MB

     Dynamical RAM for           local pot:       0.00 MB

     Dynamical RAM for          nlocal pot:       0.67 MB

     Dynamical RAM for                qrad:       0.06 MB

     Dynamical RAM for          rho,v,vnew:       8.01 MB

     Dynamical RAM for               rhoin:       2.67 MB

     Dynamical RAM for            rho*nmix:      21.37 MB

     Dynamical RAM for           G-vectors:       5.68 MB

     Dynamical RAM for          h,s,v(r/c):       0.00 MB

     Dynamical RAM for          <psi|beta>:       0.00 MB

     Dynamical RAM for                 psi:       0.67 MB

     Dynamical RAM for                hpsi:       0.67 MB

     Dynamical RAM for                spsi:       0.67 MB

     Dynamical RAM for      wfcinit/wfcrot:       0.67 MB

     Dynamical RAM for           addusdens:      10.69 MB

     Dynamical RAM for          addusforce:      14.02 MB

     Estimated static dynamical RAM per process >      49.31 MB

     Estimated max dynamical RAM per process >      63.33 MB

     Initial potential from superposition of free atoms

     starting charge    1.99998, renormalised to    2.00000

     negative rho (up, down):  2.849E-02 0.000E+00
     Starting wfcs are    2 randomized atomic wfcs

     total cpu time spent up to now is        0.9 secs

     Self-consistent Calculation

     iteration #  1     ecut=    20.00 Ry     beta= 0.70
     Davidson diagonalization with overlap
     ethr =  1.00E-02,  avg # of iterations =  2.0

     negative rho (up, down):  4.864E-02 0.000E+00

     total cpu time spent up to now is        1.3 secs

     total energy              =      -2.30333347 Ry
     Harris-Foulkes estimate   =      -2.35996571 Ry
     estimated scf accuracy    <       0.11329127 Ry

     iteration #  2     ecut=    20.00 Ry     beta= 0.70
     Davidson diagonalization with overlap
     ethr =  5.66E-03,  avg # of iterations =  1.0

     negative rho (up, down):  5.273E-02 0.000E+00

     total cpu time spent up to now is        1.5 secs

     total energy              =      -2.31126201 Ry
     Harris-Foulkes estimate   =      -2.31190616 Ry
     estimated scf accuracy    <       0.00117588 Ry

     iteration #  3     ecut=    20.00 Ry     beta= 0.70
     Davidson diagonalization with overlap
     ethr =  5.88E-05,  avg # of iterations =  2.0

     negative rho (up, down):  5.238E-02 0.000E+00

     total cpu time spent up to now is        1.8 secs

     total energy              =      -2.31157610 Ry
     Harris-Foulkes estimate   =      -2.31158005 Ry
     estimated scf accuracy    <       0.00001438 Ry

     iteration #  4     ecut=    20.00 Ry     beta= 0.70
     Davidson diagonalization with overlap
     ethr =  7.19E-07,  avg # of iterations =  2.0

     negative rho (up, down):  5.247E-02 0.000E+00

     total cpu time spent up to now is        2.1 secs

     End of self-consistent calculation

          k = 0.0000 0.0000 0.0000 ( 10997 PWs)   bands (ev):

   -10.3286

     occupation numbers 
     1.0000

     highest occupied level (ev):   -10.3286

!    total energy              =      -2.31157784 Ry
     Harris-Foulkes estimate   =      -2.31157833 Ry
     estimated scf accuracy    <       0.00000089 Ry

     The total energy is the sum of the following terms:

     one-electron contribution =      -3.82650501 Ry
     hartree contribution      =       2.03689799 Ry
     xc contribution           =      -1.37307908 Ry
     ewald contribution        =       0.85110826 Ry

     convergence has been achieved in   4 iterations

     Forces acting on atoms (cartesian axes, Ry/au):

     atom    1 type  1   force =     0.00000000    0.00000000    0.02176724
     atom    2 type  1   force =     0.00000000    0.00000000   -0.02176724
     The non-local contrib.  to forces
     atom    1 type  1   force =     0.00000000    0.00000000   -0.07320659
     atom    2 type  1   force =     0.00000000    0.00000000    0.07320659
     The ionic contribution  to forces
     atom    1 type  1   force =     0.00000000    0.00000000    1.02933422
     atom    2 type  1   force =    -0.00000000   -0.00000000   -1.02933422
     The local contribution  to forces
     atom    1 type  1   force =    -0.00000000   -0.00000000   -0.93453591
     atom    2 type  1   force =    -0.00000000   -0.00000000    0.93453591
     The core correction contribution to forces
     atom    1 type  1   force =     0.00000000    0.00000000    0.00000000
     atom    2 type  1   force =     0.00000000    0.00000000    0.00000000
     The Hubbard contrib.    to forces
     atom    1 type  1   force =     0.00000000    0.00000000    0.00000000
     atom    2 type  1   force =     0.00000000    0.00000000    0.00000000
     The SCF correction term to forces
     atom    1 type  1   force =    -0.00000000   -0.00000000    0.00017551
     atom    2 type  1   force =    -0.00000000   -0.00000000   -0.00017551

     Total force =     0.030784     Total SCF correction =     0.000248

     BFGS Geometry Optimization

     number of scf cycles    =   1
     number of bfgs steps    =   0

     energy   new            =      -2.3115778392 Ry

     new trust radius        =       0.0217672371 bohr
     new conv_thr            =       0.0000010000 Ry


ATOMIC_POSITIONS (angstrom)
H        5.000000000   5.000000000   5.748684726
H        5.000000000   5.000000000   4.988481274



     Writing output data file h2.save/
     Message from routine punch:
     wavefunctions written to file
     NEW-OLD atomic charge density approx. for the potential

     negative rho (up, down):  5.287E-02 0.000E+00

     total cpu time spent up to now is        2.8 secs

     Self-consistent Calculation

     iteration #  1     ecut=    20.00 Ry     beta= 0.70
     Davidson diagonalization with overlap
     ethr =  1.00E-06,  avg # of iterations =  3.0

     negative rho (up, down):  5.164E-02 0.000E+00

     total cpu time spent up to now is        3.1 secs

     total energy              =      -2.31185548 Ry
     Harris-Foulkes estimate   =      -2.31192273 Ry
     estimated scf accuracy    <       0.00015904 Ry

     iteration #  2     ecut=    20.00 Ry     beta= 0.70
     Davidson diagonalization with overlap
     ethr =  7.95E-06,  avg # of iterations =  1.0

     negative rho (up, down):  5.146E-02 0.000E+00

     total cpu time spent up to now is        3.4 secs

     total energy              =      -2.31187082 Ry
     Harris-Foulkes estimate   =      -2.31186999 Ry
     estimated scf accuracy    <       0.00000174 Ry

     iteration #  3     ecut=    20.00 Ry     beta= 0.70
     Davidson diagonalization with overlap
     ethr =  8.70E-08,  avg # of iterations =  2.0

     negative rho (up, down):  5.145E-02 0.000E+00

     total cpu time spent up to now is        3.7 secs

     End of self-consistent calculation

          k = 0.0000 0.0000 0.0000 ( 10997 PWs)   bands (ev):

   -10.2118

     occupation numbers 
     1.0000

     highest occupied level (ev):   -10.2118

!    total energy              =      -2.31187130 Ry
     Harris-Foulkes estimate   =      -2.31187117 Ry
     estimated scf accuracy    <       0.00000009 Ry

     The total energy is the sum of the following terms:

     one-electron contribution =      -3.76663985 Ry
     hartree contribution      =       2.00547769 Ry
     xc contribution           =      -1.35836648 Ry
     ewald contribution        =       0.80765734 Ry

     convergence has been achieved in   3 iterations

     Forces acting on atoms (cartesian axes, Ry/au):

     atom    1 type  1   force =     0.00000000    0.00000000   -0.00783232
     atom    2 type  1   force =     0.00000000    0.00000000    0.00783232
     The non-local contrib.  to forces
     atom    1 type  1   force =     0.00000000    0.00000000   -0.06853258
     atom    2 type  1   force =     0.00000000    0.00000000    0.06853258
     The ionic contribution  to forces
     atom    1 type  1   force =    -0.00000000   -0.00000000    0.96777381
     atom    2 type  1   force =     0.00000000    0.00000000   -0.96777381
     The local contribution  to forces
     atom    1 type  1   force =    -0.00000000   -0.00000000   -0.90708258
     atom    2 type  1   force =    -0.00000000   -0.00000000    0.90708258
     The core correction contribution to forces
     atom    1 type  1   force =     0.00000000    0.00000000    0.00000000
     atom    2 type  1   force =     0.00000000    0.00000000    0.00000000
     The Hubbard contrib.    to forces
     atom    1 type  1   force =     0.00000000    0.00000000    0.00000000
     atom    2 type  1   force =     0.00000000    0.00000000    0.00000000
     The SCF correction term to forces
     atom    1 type  1   force =     0.00000000   -0.00000000    0.00000904
     atom    2 type  1   force =     0.00000000    0.00000000   -0.00000904

     Total force =     0.011077     Total SCF correction =     0.000013

     number of scf cycles    =   2
     number of bfgs steps    =   1

     energy   old            =      -2.3115778392 Ry
     energy   new            =      -2.3118712953 Ry

     CASE: energy  _new < energy  _old

     new trust radius        =       0.0057598125 bohr
     new conv_thr            =       0.0000000293 Ry


ATOMIC_POSITIONS (angstrom)
H        5.000000000   5.000000000   5.745636764
H        5.000000000   5.000000000   4.991529236



     Writing output data file h2.save/
     Message from routine punch:
     wavefunctions written to file
     NEW-OLD atomic charge density approx. for the potential

     negative rho (up, down):  5.132E-02 0.000E+00

     total cpu time spent up to now is        4.4 secs

     Self-consistent Calculation

     iteration #  1     ecut=    20.00 Ry     beta= 0.70
     Davidson diagonalization with overlap
     ethr =  1.00E-06,  avg # of iterations =  2.0

     negative rho (up, down):  5.164E-02 0.000E+00

     total cpu time spent up to now is        4.7 secs

     total energy              =      -2.31191751 Ry
     Harris-Foulkes estimate   =      -2.31192216 Ry
     estimated scf accuracy    <       0.00000984 Ry

     iteration #  2     ecut=    20.00 Ry     beta= 0.70
     Davidson diagonalization with overlap
     ethr =  4.92E-07,  avg # of iterations =  1.0

     negative rho (up, down):  5.170E-02 0.000E+00

     total cpu time spent up to now is        5.0 secs

     total energy              =      -2.31191829 Ry
     Harris-Foulkes estimate   =      -2.31191833 Ry
     estimated scf accuracy    <       0.00000015 Ry

     iteration #  3     ecut=    20.00 Ry     beta= 0.70
     Davidson diagonalization with overlap
     ethr =  7.60E-09,  avg # of iterations =  2.0

     negative rho (up, down):  5.171E-02 0.000E+00

     total cpu time spent up to now is        5.3 secs

     End of self-consistent calculation

          k = 0.0000 0.0000 0.0000 ( 10997 PWs)   bands (ev):

   -10.2381

     occupation numbers 
     1.0000

     highest occupied level (ev):   -10.2381

!    total energy              =      -2.31191832 Ry
     Harris-Foulkes estimate   =      -2.31191833 Ry
     estimated scf accuracy    <          6.7E-09 Ry

     The total energy is the sum of the following terms:

     one-electron contribution =      -3.78220797 Ry
     hartree contribution      =       2.01350329 Ry
     xc contribution           =      -1.36210967 Ry
     ewald contribution        =       0.81889604 Ry

     convergence has been achieved in   3 iterations

     Forces acting on atoms (cartesian axes, Ry/au):

     atom    1 type  1   force =     0.00000000    0.00000000   -0.00032695
     atom    2 type  1   force =     0.00000000    0.00000000    0.00032695
     The non-local contrib.  to forces
     atom    1 type  1   force =     0.00000000    0.00000000   -0.06969684
     atom    2 type  1   force =     0.00000000    0.00000000    0.06969684
     The ionic contribution  to forces
     atom    1 type  1   force =    -0.00000000   -0.00000000    0.98351608
     atom    2 type  1   force =     0.00000000    0.00000000   -0.98351608
     The local contribution  to forces
     atom    1 type  1   force =    -0.00000000   -0.00000000   -0.91413438
     atom    2 type  1   force =    -0.00000000   -0.00000000    0.91413438
     The core correction contribution to forces
     atom    1 type  1   force =     0.00000000    0.00000000    0.00000000
     atom    2 type  1   force =     0.00000000    0.00000000    0.00000000
     The Hubbard contrib.    to forces
     atom    1 type  1   force =     0.00000000    0.00000000    0.00000000
     atom    2 type  1   force =     0.00000000    0.00000000    0.00000000
     The SCF correction term to forces
     atom    1 type  1   force =     0.00000000   -0.00000000   -0.00001181
     atom    2 type  1   force =     0.00000000   -0.00000000    0.00001181

     Total force =     0.000462     Total SCF correction =     0.000017

     bfgs converged in   3 scf cycles and   2 bfgs steps
     (criteria: energy <  1.0E-04 Ry, force <  1.0E-03 Ry/Bohr)

     End of BFGS Geometry Optimization

     Final energy   =      -2.3119183183 Ry
Begin final coordinates

ATOMIC_POSITIONS (angstrom)
H        5.000000000   5.000000000   5.745636764
H        5.000000000   5.000000000   4.991529236
End final coordinates



     Writing output data file h2.save/

     init_run     :      0.61s CPU      0.66s WALL (       1 calls)
     electrons    :      2.90s CPU      2.98s WALL (       3 calls)
     update_pot   :      0.86s CPU      0.87s WALL (       2 calls)
     forces       :      0.60s CPU      0.61s WALL (       3 calls)

     Called by init_run:
     wfcinit      :      0.03s CPU      0.03s WALL (       1 calls)
     wfcinit:atom :      0.00s CPU      0.00s WALL (       1 calls)
     wfcinit:wfcr :      0.03s CPU      0.03s WALL (       1 calls)
     potinit      :      0.29s CPU      0.31s WALL (       1 calls)
     hinit0       :      0.21s CPU      0.22s WALL (       1 calls)

     Called by electrons:
     c_bands      :      0.36s CPU      0.36s WALL (      10 calls)
     sum_band     :      0.43s CPU      0.43s WALL (      10 calls)
     v_of_rho     :      2.27s CPU      2.30s WALL (      13 calls)
     v_h          :      0.14s CPU      0.15s WALL (      13 calls)
     v_xc         :      2.13s CPU      2.16s WALL (      13 calls)
     newd         :      0.20s CPU      0.21s WALL (      13 calls)
     mix_rho      :      0.14s CPU      0.18s WALL (      10 calls)

     Called by c_bands:
     init_us_2    :      0.03s CPU      0.03s WALL (      21 calls)
     cegterg      :      0.34s CPU      0.34s WALL (      10 calls)

     Called by sum_band:
     sum_band:bec :      0.00s CPU      0.00s WALL (      10 calls)
     addusdens    :      0.08s CPU      0.09s WALL (      10 calls)

     Called by *egterg:
     h_psi        :      0.34s CPU      0.34s WALL (      29 calls)
     s_psi        :      0.01s CPU      0.01s WALL (      29 calls)
     g_psi        :      0.00s CPU      0.00s WALL (      18 calls)
     cdiaghg      :      0.00s CPU      0.00s WALL (      26 calls)
     cegterg:over :      0.00s CPU      0.00s WALL (      18 calls)
     cegterg:upda :      0.00s CPU      0.00s WALL (      18 calls)
     cegterg:last :      0.00s CPU      0.00s WALL (      10 calls)

     Called by h_psi:
     h_psi:pot    :      0.34s CPU      0.34s WALL (      29 calls)
     h_psi:calbec :      0.01s CPU      0.01s WALL (      29 calls)
     vloc_psi     :      0.33s CPU      0.33s WALL (      29 calls)
     add_vuspsi   :      0.00s CPU      0.00s WALL (      29 calls)

     General routines
     calbec       :      0.01s CPU      0.01s WALL (      51 calls)
     fft          :      1.22s CPU      1.23s WALL (     151 calls)
     ffts         :      0.07s CPU      0.07s WALL (      10 calls)
     fftw         :      0.35s CPU      0.35s WALL (      70 calls)
     davcio       :      0.00s CPU      0.00s WALL (       2 calls)

     Parallel routines

     PWSCF        :      5.34s CPU      5.53s WALL


   This run was terminated on:   9:53:48  10Nov2020            

=------------------------------------------------------------------------------=
   JOB DONE.
=------------------------------------------------------------------------------=
