
     Program PWSCF v.6.4.1 starts on 11Nov2020 at 22:29:21 

     This program is part of the open-source Quantum ESPRESSO suite
     for quantum simulation of materials; please cite
         "P. Giannozzi et al., J. Phys.:Condens. Matter 21 395502 (2009);
         "P. Giannozzi et al., J. Phys.:Condens. Matter 29 465901 (2017);
          URL http://www.quantum-espresso.org", 
     in publications or presentations arising from this work. More details at
     http://www.quantum-espresso.org/quote

     Parallel version (MPI), running on     1 processors

     MPI processes distributed on     1 nodes
     Reading input from fe.pwi
Warning: card &IONS ignored
Warning: card / ignored
Warning: card &CELL ignored
Warning: card / ignored

     Current dimensions of program PWSCF are:
     Max number of different atomic species (ntypx) = 10
     Max number of k-points (npk) =  40000
     Max angular momentum in pseudopotentials (lmaxx) =  3
     Message from routine input:
     WARNING: "startingwfc" set to atomic+random may spoil restart

     Atomic positions and unit cell read from directory:
     ./fe.save/


     Subspace diagonalization in iterative solution of the eigenvalue problem:
     a serial algorithm will be used

     Message from routine setup:
     DEPRECATED: symmetry with ibrav=0, use correct ibrav instead

     G-vector sticks info
     --------------------
     sticks:   dense  smooth     PW     G-vecs:    dense   smooth      PW
     Sum         265     265    117                 2731     2731     767



     bravais-lattice index     =            0
     lattice parameter (alat)  =       4.6969  a.u.
     unit-cell volume          =      79.7650 (a.u.)^3
     number of atoms/cell      =            1
     number of atomic types    =            1
     number of electrons       =        16.00
     number of Kohn-Sham states=           12
     kinetic-energy cutoff     =      40.0000  Ry
     charge density cutoff     =     160.0000  Ry
     Exchange-correlation      = PBE ( 1  4  3  4 0 0)

     celldm(1)=   4.696901  celldm(2)=   0.000000  celldm(3)=   0.000000
     celldm(4)=   0.000000  celldm(5)=   0.000000  celldm(6)=   0.000000

     crystal axes: (cart. coord. in units of alat)
               a(1) = (  -0.577350   0.577350   0.577350 )  
               a(2) = (   0.577350  -0.577350   0.577350 )  
               a(3) = (   0.577350   0.577350  -0.577350 )  

     reciprocal axes: (cart. coord. in units 2 pi/alat)
               b(1) = (  0.000000  0.866025  0.866025 )  
               b(2) = (  0.866025  0.000000  0.866025 )  
               b(3) = (  0.866025  0.866025  0.000000 )  


     PseudoPot. # 1 for Fe read from file:
     /home/xing/datas/pseudo/Fe.pbe-spn-rrkjus_psl.1.0.0.UPF
     MD5 check sum: 72ea77fed8e64ab3a2ccf2804dfc1862
     Pseudo is Ultrasoft + core correction, Zval = 16.0
     Generated using "atomic" code by A. Dal Corso v.6.3
     Using radial grid of 1191 points,  6 beta functions with: 
                l(1) =   0
                l(2) =   0
                l(3) =   1
                l(4) =   1
                l(5) =   2
                l(6) =   2
     Q(r) pseudized with 0 coefficients 


     atomic species   valence    mass     pseudopotential
        Fe            16.00    55.84500     Fe( 1.00)

     48 Sym. Ops., with inversion, found


                                    s                        frac. trans.

      isym =  1     identity                                     

 cryst.   s( 1) = (     1          0          0      )
                  (     0          1          0      )
                  (     0          0          1      )

 cart.    s( 1) = (  1.0000000  0.0000000  0.0000000 )
                  (  0.0000000  1.0000000  0.0000000 )
                  (  0.0000000  0.0000000  1.0000000 )


      isym =  2     180 deg rotation - cart. axis [0,0,1]        

 cryst.   s( 2) = (     0          1          0      )
                  (     1          0          0      )
                  (    -1         -1         -1      )

 cart.    s( 2) = ( -1.0000000  0.0000000  0.0000000 )
                  (  0.0000000 -1.0000000  0.0000000 )
                  (  0.0000000  0.0000000  1.0000000 )


      isym =  3     180 deg rotation - cart. axis [0,1,0]        

 cryst.   s( 3) = (     0          0          1      )
                  (    -1         -1         -1      )
                  (     1          0          0      )

 cart.    s( 3) = ( -1.0000000  0.0000000  0.0000000 )
                  (  0.0000000  1.0000000  0.0000000 )
                  (  0.0000000  0.0000000 -1.0000000 )


      isym =  4     180 deg rotation - cart. axis [1,0,0]        

 cryst.   s( 4) = (    -1         -1         -1      )
                  (     0          0          1      )
                  (     0          1          0      )

 cart.    s( 4) = (  1.0000000  0.0000000  0.0000000 )
                  (  0.0000000 -1.0000000  0.0000000 )
                  (  0.0000000  0.0000000 -1.0000000 )


      isym =  5     180 deg rotation - cart. axis [1,1,0]        

 cryst.   s( 5) = (    -1          0          0      )
                  (     0         -1          0      )
                  (     1          1          1      )

 cart.    s( 5) = (  0.0000000  1.0000000  0.0000000 )
                  (  1.0000000  0.0000000  0.0000000 )
                  (  0.0000000  0.0000000 -1.0000000 )


      isym =  6     180 deg rotation - cart. axis [1,-1,0]       

 cryst.   s( 6) = (     0         -1          0      )
                  (    -1          0          0      )
                  (     0          0         -1      )

 cart.    s( 6) = (  0.0000000 -1.0000000  0.0000000 )
                  ( -1.0000000  0.0000000  0.0000000 )
                  (  0.0000000  0.0000000 -1.0000000 )


      isym =  7      90 deg rotation - cart. axis [0,0,-1]       

 cryst.   s( 7) = (     1          1          1      )
                  (     0          0         -1      )
                  (    -1          0          0      )

 cart.    s( 7) = (  0.0000000  1.0000000  0.0000000 )
                  ( -1.0000000  0.0000000  0.0000000 )
                  (  0.0000000  0.0000000  1.0000000 )


      isym =  8      90 deg rotation - cart. axis [0,0,1]        

 cryst.   s( 8) = (     0          0         -1      )
                  (     1          1          1      )
                  (     0         -1          0      )

 cart.    s( 8) = (  0.0000000 -1.0000000  0.0000000 )
                  (  1.0000000  0.0000000  0.0000000 )
                  (  0.0000000  0.0000000  1.0000000 )


      isym =  9     180 deg rotation - cart. axis [1,0,1]        

 cryst.   s( 9) = (    -1          0          0      )
                  (     1          1          1      )
                  (     0          0         -1      )

 cart.    s( 9) = (  0.0000000  0.0000000  1.0000000 )
                  (  0.0000000 -1.0000000  0.0000000 )
                  (  1.0000000  0.0000000  0.0000000 )


      isym = 10     180 deg rotation - cart. axis [-1,0,1]       

 cryst.   s(10) = (     0          0         -1      )
                  (     0         -1          0      )
                  (    -1          0          0      )

 cart.    s(10) = (  0.0000000  0.0000000 -1.0000000 )
                  (  0.0000000 -1.0000000  0.0000000 )
                  ( -1.0000000  0.0000000  0.0000000 )


      isym = 11      90 deg rotation - cart. axis [0,1,0]        

 cryst.   s(11) = (     1          1          1      )
                  (    -1          0          0      )
                  (     0         -1          0      )

 cart.    s(11) = (  0.0000000  0.0000000  1.0000000 )
                  (  0.0000000  1.0000000  0.0000000 )
                  ( -1.0000000  0.0000000  0.0000000 )


      isym = 12      90 deg rotation - cart. axis [0,-1,0]       

 cryst.   s(12) = (     0         -1          0      )
                  (     0          0         -1      )
                  (     1          1          1      )

 cart.    s(12) = (  0.0000000  0.0000000 -1.0000000 )
                  (  0.0000000  1.0000000  0.0000000 )
                  (  1.0000000  0.0000000  0.0000000 )


      isym = 13     180 deg rotation - cart. axis [0,1,1]        

 cryst.   s(13) = (     1          1          1      )
                  (     0         -1          0      )
                  (     0          0         -1      )

 cart.    s(13) = ( -1.0000000  0.0000000  0.0000000 )
                  (  0.0000000  0.0000000  1.0000000 )
                  (  0.0000000  1.0000000  0.0000000 )


      isym = 14     180 deg rotation - cart. axis [0,1,-1]       

 cryst.   s(14) = (    -1          0          0      )
                  (     0          0         -1      )
                  (     0         -1          0      )

 cart.    s(14) = ( -1.0000000  0.0000000  0.0000000 )
                  (  0.0000000  0.0000000 -1.0000000 )
                  (  0.0000000 -1.0000000  0.0000000 )


      isym = 15      90 deg rotation - cart. axis [-1,0,0]       

 cryst.   s(15) = (     0         -1          0      )
                  (     1          1          1      )
                  (    -1          0          0      )

 cart.    s(15) = (  1.0000000  0.0000000  0.0000000 )
                  (  0.0000000  0.0000000  1.0000000 )
                  (  0.0000000 -1.0000000  0.0000000 )


      isym = 16      90 deg rotation - cart. axis [1,0,0]        

 cryst.   s(16) = (     0          0         -1      )
                  (    -1          0          0      )
                  (     1          1          1      )

 cart.    s(16) = (  1.0000000  0.0000000  0.0000000 )
                  (  0.0000000  0.0000000 -1.0000000 )
                  (  0.0000000  1.0000000  0.0000000 )


      isym = 17     120 deg rotation - cart. axis [-1,-1,-1]     

 cryst.   s(17) = (     0          0          1      )
                  (     1          0          0      )
                  (     0          1          0      )

 cart.    s(17) = (  0.0000000  1.0000000  0.0000000 )
                  (  0.0000000  0.0000000  1.0000000 )
                  (  1.0000000  0.0000000  0.0000000 )


      isym = 18     120 deg rotation - cart. axis [-1,1,1]       

 cryst.   s(18) = (     1          0          0      )
                  (     0          0          1      )
                  (    -1         -1         -1      )

 cart.    s(18) = (  0.0000000 -1.0000000  0.0000000 )
                  (  0.0000000  0.0000000  1.0000000 )
                  ( -1.0000000  0.0000000  0.0000000 )


      isym = 19     120 deg rotation - cart. axis [1,1,-1]       

 cryst.   s(19) = (     0          1          0      )
                  (    -1         -1         -1      )
                  (     0          0          1      )

 cart.    s(19) = (  0.0000000  1.0000000  0.0000000 )
                  (  0.0000000  0.0000000 -1.0000000 )
                  ( -1.0000000  0.0000000  0.0000000 )


      isym = 20     120 deg rotation - cart. axis [1,-1,1]       

 cryst.   s(20) = (    -1         -1         -1      )
                  (     0          1          0      )
                  (     1          0          0      )

 cart.    s(20) = (  0.0000000 -1.0000000  0.0000000 )
                  (  0.0000000  0.0000000 -1.0000000 )
                  (  1.0000000  0.0000000  0.0000000 )


      isym = 21     120 deg rotation - cart. axis [1,1,1]        

 cryst.   s(21) = (     0          1          0      )
                  (     0          0          1      )
                  (     1          0          0      )

 cart.    s(21) = (  0.0000000  0.0000000  1.0000000 )
                  (  1.0000000  0.0000000  0.0000000 )
                  (  0.0000000  1.0000000  0.0000000 )


      isym = 22     120 deg rotation - cart. axis [-1,1,-1]      

 cryst.   s(22) = (     0          0          1      )
                  (     0          1          0      )
                  (    -1         -1         -1      )

 cart.    s(22) = (  0.0000000  0.0000000  1.0000000 )
                  ( -1.0000000  0.0000000  0.0000000 )
                  (  0.0000000 -1.0000000  0.0000000 )


      isym = 23     120 deg rotation - cart. axis [1,-1,-1]      

 cryst.   s(23) = (     1          0          0      )
                  (    -1         -1         -1      )
                  (     0          1          0      )

 cart.    s(23) = (  0.0000000  0.0000000 -1.0000000 )
                  ( -1.0000000  0.0000000  0.0000000 )
                  (  0.0000000  1.0000000  0.0000000 )


      isym = 24     120 deg rotation - cart. axis [-1,-1,1]      

 cryst.   s(24) = (    -1         -1         -1      )
                  (     1          0          0      )
                  (     0          0          1      )

 cart.    s(24) = (  0.0000000  0.0000000 -1.0000000 )
                  (  1.0000000  0.0000000  0.0000000 )
                  (  0.0000000 -1.0000000  0.0000000 )


      isym = 25     inversion                                    

 cryst.   s(25) = (    -1          0          0      )
                  (     0         -1          0      )
                  (     0          0         -1      )

 cart.    s(25) = ( -1.0000000  0.0000000  0.0000000 )
                  (  0.0000000 -1.0000000  0.0000000 )
                  (  0.0000000  0.0000000 -1.0000000 )


      isym = 26     inv. 180 deg rotation - cart. axis [0,0,1]   

 cryst.   s(26) = (     0         -1          0      )
                  (    -1          0          0      )
                  (     1          1          1      )

 cart.    s(26) = (  1.0000000  0.0000000  0.0000000 )
                  (  0.0000000  1.0000000  0.0000000 )
                  (  0.0000000  0.0000000 -1.0000000 )


      isym = 27     inv. 180 deg rotation - cart. axis [0,1,0]   

 cryst.   s(27) = (     0          0         -1      )
                  (     1          1          1      )
                  (    -1          0          0      )

 cart.    s(27) = (  1.0000000  0.0000000  0.0000000 )
                  (  0.0000000 -1.0000000  0.0000000 )
                  (  0.0000000  0.0000000  1.0000000 )


      isym = 28     inv. 180 deg rotation - cart. axis [1,0,0]   

 cryst.   s(28) = (     1          1          1      )
                  (     0          0         -1      )
                  (     0         -1          0      )

 cart.    s(28) = ( -1.0000000  0.0000000  0.0000000 )
                  (  0.0000000  1.0000000  0.0000000 )
                  (  0.0000000  0.0000000  1.0000000 )


      isym = 29     inv. 180 deg rotation - cart. axis [1,1,0]   

 cryst.   s(29) = (     1          0          0      )
                  (     0          1          0      )
                  (    -1         -1         -1      )

 cart.    s(29) = (  0.0000000 -1.0000000  0.0000000 )
                  ( -1.0000000  0.0000000  0.0000000 )
                  (  0.0000000  0.0000000  1.0000000 )


      isym = 30     inv. 180 deg rotation - cart. axis [1,-1,0]  

 cryst.   s(30) = (     0          1          0      )
                  (     1          0          0      )
                  (     0          0          1      )

 cart.    s(30) = (  0.0000000  1.0000000  0.0000000 )
                  (  1.0000000  0.0000000  0.0000000 )
                  (  0.0000000  0.0000000  1.0000000 )


      isym = 31     inv.  90 deg rotation - cart. axis [0,0,-1]  

 cryst.   s(31) = (    -1         -1         -1      )
                  (     0          0          1      )
                  (     1          0          0      )

 cart.    s(31) = (  0.0000000 -1.0000000  0.0000000 )
                  (  1.0000000  0.0000000  0.0000000 )
                  (  0.0000000  0.0000000 -1.0000000 )


      isym = 32     inv.  90 deg rotation - cart. axis [0,0,1]   

 cryst.   s(32) = (     0          0          1      )
                  (    -1         -1         -1      )
                  (     0          1          0      )

 cart.    s(32) = (  0.0000000  1.0000000  0.0000000 )
                  ( -1.0000000  0.0000000  0.0000000 )
                  (  0.0000000  0.0000000 -1.0000000 )


      isym = 33     inv. 180 deg rotation - cart. axis [1,0,1]   

 cryst.   s(33) = (     1          0          0      )
                  (    -1         -1         -1      )
                  (     0          0          1      )

 cart.    s(33) = (  0.0000000  0.0000000 -1.0000000 )
                  (  0.0000000  1.0000000  0.0000000 )
                  ( -1.0000000  0.0000000  0.0000000 )


      isym = 34     inv. 180 deg rotation - cart. axis [-1,0,1]  

 cryst.   s(34) = (     0          0          1      )
                  (     0          1          0      )
                  (     1          0          0      )

 cart.    s(34) = (  0.0000000  0.0000000  1.0000000 )
                  (  0.0000000  1.0000000  0.0000000 )
                  (  1.0000000  0.0000000  0.0000000 )


      isym = 35     inv.  90 deg rotation - cart. axis [0,1,0]   

 cryst.   s(35) = (    -1         -1         -1      )
                  (     1          0          0      )
                  (     0          1          0      )

 cart.    s(35) = (  0.0000000  0.0000000 -1.0000000 )
                  (  0.0000000 -1.0000000  0.0000000 )
                  (  1.0000000  0.0000000  0.0000000 )


      isym = 36     inv.  90 deg rotation - cart. axis [0,-1,0]  

 cryst.   s(36) = (     0          1          0      )
                  (     0          0          1      )
                  (    -1         -1         -1      )

 cart.    s(36) = (  0.0000000  0.0000000  1.0000000 )
                  (  0.0000000 -1.0000000  0.0000000 )
                  ( -1.0000000  0.0000000  0.0000000 )


      isym = 37     inv. 180 deg rotation - cart. axis [0,1,1]   

 cryst.   s(37) = (    -1         -1         -1      )
                  (     0          1          0      )
                  (     0          0          1      )

 cart.    s(37) = (  1.0000000  0.0000000  0.0000000 )
                  (  0.0000000  0.0000000 -1.0000000 )
                  (  0.0000000 -1.0000000  0.0000000 )


      isym = 38     inv. 180 deg rotation - cart. axis [0,1,-1]  

 cryst.   s(38) = (     1          0          0      )
                  (     0          0          1      )
                  (     0          1          0      )

 cart.    s(38) = (  1.0000000  0.0000000  0.0000000 )
                  (  0.0000000  0.0000000  1.0000000 )
                  (  0.0000000  1.0000000  0.0000000 )


      isym = 39     inv.  90 deg rotation - cart. axis [-1,0,0]  

 cryst.   s(39) = (     0          1          0      )
                  (    -1         -1         -1      )
                  (     1          0          0      )

 cart.    s(39) = ( -1.0000000  0.0000000  0.0000000 )
                  (  0.0000000  0.0000000 -1.0000000 )
                  (  0.0000000  1.0000000  0.0000000 )


      isym = 40     inv.  90 deg rotation - cart. axis [1,0,0]   

 cryst.   s(40) = (     0          0          1      )
                  (     1          0          0      )
                  (    -1         -1         -1      )

 cart.    s(40) = ( -1.0000000  0.0000000  0.0000000 )
                  (  0.0000000  0.0000000  1.0000000 )
                  (  0.0000000 -1.0000000  0.0000000 )


      isym = 41     inv. 120 deg rotation - cart. axis [-1,-1,-1]

 cryst.   s(41) = (     0          0         -1      )
                  (    -1          0          0      )
                  (     0         -1          0      )

 cart.    s(41) = (  0.0000000 -1.0000000  0.0000000 )
                  (  0.0000000  0.0000000 -1.0000000 )
                  ( -1.0000000  0.0000000  0.0000000 )


      isym = 42     inv. 120 deg rotation - cart. axis [-1,1,1]  

 cryst.   s(42) = (    -1          0          0      )
                  (     0          0         -1      )
                  (     1          1          1      )

 cart.    s(42) = (  0.0000000  1.0000000  0.0000000 )
                  (  0.0000000  0.0000000 -1.0000000 )
                  (  1.0000000  0.0000000  0.0000000 )


      isym = 43     inv. 120 deg rotation - cart. axis [1,1,-1]  

 cryst.   s(43) = (     0         -1          0      )
                  (     1          1          1      )
                  (     0          0         -1      )

 cart.    s(43) = (  0.0000000 -1.0000000  0.0000000 )
                  (  0.0000000  0.0000000  1.0000000 )
                  (  1.0000000  0.0000000  0.0000000 )


      isym = 44     inv. 120 deg rotation - cart. axis [1,-1,1]  

 cryst.   s(44) = (     1          1          1      )
                  (     0         -1          0      )
                  (    -1          0          0      )

 cart.    s(44) = (  0.0000000  1.0000000  0.0000000 )
                  (  0.0000000  0.0000000  1.0000000 )
                  ( -1.0000000  0.0000000  0.0000000 )


      isym = 45     inv. 120 deg rotation - cart. axis [1,1,1]   

 cryst.   s(45) = (     0         -1          0      )
                  (     0          0         -1      )
                  (    -1          0          0      )

 cart.    s(45) = (  0.0000000  0.0000000 -1.0000000 )
                  ( -1.0000000  0.0000000  0.0000000 )
                  (  0.0000000 -1.0000000  0.0000000 )


      isym = 46     inv. 120 deg rotation - cart. axis [-1,1,-1] 

 cryst.   s(46) = (     0          0         -1      )
                  (     0         -1          0      )
                  (     1          1          1      )

 cart.    s(46) = (  0.0000000  0.0000000 -1.0000000 )
                  (  1.0000000  0.0000000  0.0000000 )
                  (  0.0000000  1.0000000  0.0000000 )


      isym = 47     inv. 120 deg rotation - cart. axis [1,-1,-1] 

 cryst.   s(47) = (    -1          0          0      )
                  (     1          1          1      )
                  (     0         -1          0      )

 cart.    s(47) = (  0.0000000  0.0000000  1.0000000 )
                  (  1.0000000  0.0000000  0.0000000 )
                  (  0.0000000 -1.0000000  0.0000000 )


      isym = 48     inv. 120 deg rotation - cart. axis [-1,-1,1] 

 cryst.   s(48) = (     1          1          1      )
                  (    -1          0          0      )
                  (     0          0         -1      )

 cart.    s(48) = (  0.0000000  0.0000000  1.0000000 )
                  ( -1.0000000  0.0000000  0.0000000 )
                  (  0.0000000  1.0000000  0.0000000 )


   Cartesian axes

     site n.     atom                  positions (alat units)
         1           Fe  tau(   1) = (   0.0000000   0.0000000   0.0000000  )

   Crystallographic axes

     site n.     atom                  positions (cryst. coord.)
         1           Fe  tau(   1) = (  0.0000000  0.0000000  0.0000000  )

     number of k points=    29  gaussian smearing, width (Ry)=  0.0300
                       cart. coord. in units 2pi/alat
        k(    1) = (   0.0000000   0.0000000   0.0000000), wk =   0.0039062
        k(    2) = (   0.1082532   0.1082532   0.0000000), wk =   0.0468750
        k(    3) = (   0.2165064   0.2165064   0.0000000), wk =   0.0468750
        k(    4) = (   0.3247595   0.3247595   0.0000000), wk =   0.0468750
        k(    5) = (  -0.4330127  -0.4330127   0.0000000), wk =   0.0234375
        k(    6) = (   0.2165064   0.1082532   0.1082532), wk =   0.0937500
        k(    7) = (   0.3247595   0.2165064   0.1082532), wk =   0.1875000
        k(    8) = (   0.4330127   0.3247595   0.1082532), wk =   0.1875000
        k(    9) = (   0.4330127   0.2165064   0.2165064), wk =   0.0937500
        k(   10) = (   0.5412659   0.3247595   0.2165064), wk =   0.0937500
        k(   11) = (   0.2165064   0.2165064   0.2165064), wk =   0.0312500
        k(   12) = (   0.3247595   0.3247595   0.2165064), wk =   0.0937500
        k(   13) = (   0.4330127   0.4330127   0.2165064), wk =   0.0468750
        k(   14) = (   0.0000000   0.0000000   0.2165064), wk =   0.0234375
        k(   15) = (   0.4330127   0.3247595   0.3247595), wk =   0.0937500
        k(   16) = (   0.0000000  -0.1082532   0.3247595), wk =   0.0937500
        k(   17) = (   0.0000000  -0.2165064   0.4330127), wk =   0.0937500
        k(   18) = (   0.1082532  -0.1082532   0.4330127), wk =   0.0937500
        k(   19) = (  -0.8660254  -0.3247595  -0.3247595), wk =   0.0468750
        k(   20) = (  -0.7577722  -0.2165064  -0.3247595), wk =   0.1875000
        k(   21) = (  -0.6495191  -0.2165064  -0.2165064), wk =   0.0312500
        k(   22) = (   0.4330127   0.4330127   0.4330127), wk =   0.0078125
        k(   23) = (   0.0000000   0.0000000   0.4330127), wk =   0.0234375
        k(   24) = (   0.0000000  -0.1082532   0.5412659), wk =   0.0937500
        k(   25) = (  -0.8660254  -0.2165064  -0.2165064), wk =   0.0468750
        k(   26) = (  -0.7577722  -0.1082532  -0.2165064), wk =   0.0937500
        k(   27) = (   0.0000000   0.0000000   0.6495191), wk =   0.0234375
        k(   28) = (  -0.8660254  -0.1082532  -0.1082532), wk =   0.0468750
        k(   29) = (  -0.8660254  -0.8660254  -0.8660254), wk =   0.0039062

                       cryst. coord.
        k(    1) = (   0.0000000   0.0000000   0.0000000), wk =   0.0039062
        k(    2) = (   0.0000000   0.0000000   0.1250000), wk =   0.0468750
        k(    3) = (   0.0000000   0.0000000   0.2500000), wk =   0.0468750
        k(    4) = (   0.0000000   0.0000000   0.3750000), wk =   0.0468750
        k(    5) = (   0.0000000   0.0000000  -0.5000000), wk =   0.0234375
        k(    6) = (   0.0000000   0.1250000   0.1250000), wk =   0.0937500
        k(    7) = (   0.0000000   0.1250000   0.2500000), wk =   0.1875000
        k(    8) = (   0.0000000   0.1250000   0.3750000), wk =   0.1875000
        k(    9) = (   0.0000000   0.2500000   0.2500000), wk =   0.0937500
        k(   10) = (  -0.0000000   0.2500000   0.3750000), wk =   0.0937500
        k(   11) = (   0.1250000   0.1250000   0.1250000), wk =   0.0312500
        k(   12) = (   0.1250000   0.1250000   0.2500000), wk =   0.0937500
        k(   13) = (   0.1250000   0.1250000   0.3750000), wk =   0.0468750
        k(   14) = (   0.1250000   0.1250000  -0.1250000), wk =   0.0234375
        k(   15) = (   0.1250000   0.2500000   0.2500000), wk =   0.0937500
        k(   16) = (   0.1250000   0.2500000  -0.2500000), wk =   0.0937500
        k(   17) = (   0.1250000   0.3750000  -0.3750000), wk =   0.0937500
        k(   18) = (   0.1250000   0.3750000  -0.2500000), wk =   0.0937500
        k(   19) = (   0.1250000  -0.5000000  -0.5000000), wk =   0.0468750
        k(   20) = (   0.1250000  -0.5000000  -0.3750000), wk =   0.1875000
        k(   21) = (   0.1250000  -0.3750000  -0.3750000), wk =   0.0312500
        k(   22) = (   0.2500000   0.2500000   0.2500000), wk =   0.0078125
        k(   23) = (   0.2500000   0.2500000  -0.2500000), wk =   0.0234375
        k(   24) = (   0.2500000   0.3750000  -0.3750000), wk =   0.0937500
        k(   25) = (   0.2500000  -0.5000000  -0.5000000), wk =   0.0468750
        k(   26) = (   0.2500000  -0.5000000  -0.3750000), wk =   0.0937500
        k(   27) = (   0.3750000   0.3750000  -0.3750000), wk =   0.0234375
        k(   28) = (   0.3750000  -0.5000000  -0.5000000), wk =   0.0468750
        k(   29) = (  -0.5000000  -0.5000000  -0.5000000), wk =   0.0039062

     Dense  grid:     2731 G-vectors     FFT dimensions: (  20,  20,  20)

     Dynamical RAM for                 wfc:       0.06 MB

     Dynamical RAM for     wfc (w. buffer):       0.06 MB

     Dynamical RAM for           str. fact:       0.04 MB

     Dynamical RAM for           local pot:       0.00 MB

     Dynamical RAM for          nlocal pot:       0.09 MB

     Dynamical RAM for                qrad:       0.76 MB

     Dynamical RAM for          rho,v,vnew:       0.31 MB

     Dynamical RAM for           G-vectors:       0.18 MB

     Dynamical RAM for          h,s,v(r/c):       0.11 MB

     Dynamical RAM for          <psi|beta>:       0.00 MB

     Dynamical RAM for                 psi:       0.25 MB

     Dynamical RAM for                hpsi:       0.25 MB

     Dynamical RAM for                spsi:       0.25 MB

     Dynamical RAM for      wfcinit/wfcrot:       0.13 MB

     Dynamical RAM for           addusdens:       7.79 MB

     Estimated static dynamical RAM per process >       1.83 MB

     Estimated max dynamical RAM per process >       9.62 MB

     Check: negative core charge=   -0.000080

     The potential is recalculated from file :
     ./fe.save/charge-density

     Starting wfcs are   10 randomized atomic wfcs +    2 random wfcs

     Band Structure Calculation
     Davidson diagonalization with overlap

     Computing kpt #:     1
     total cpu time spent up to now is        2.0 secs

     Computing kpt #:     2
     total cpu time spent up to now is        2.0 secs

     Computing kpt #:     3
     total cpu time spent up to now is        2.1 secs

     Computing kpt #:     4
     total cpu time spent up to now is        2.1 secs

     Computing kpt #:     5
     total cpu time spent up to now is        2.2 secs

     Computing kpt #:     6
     total cpu time spent up to now is        2.2 secs

     Computing kpt #:     7
     total cpu time spent up to now is        2.3 secs

     Computing kpt #:     8
     total cpu time spent up to now is        2.3 secs

     Computing kpt #:     9
     total cpu time spent up to now is        2.4 secs

     Computing kpt #:    10
     total cpu time spent up to now is        2.4 secs

     Computing kpt #:    11
     total cpu time spent up to now is        2.5 secs

     Computing kpt #:    12
     total cpu time spent up to now is        2.5 secs

     Computing kpt #:    13
     total cpu time spent up to now is        2.6 secs

     Computing kpt #:    14
     total cpu time spent up to now is        2.6 secs

     Computing kpt #:    15
     total cpu time spent up to now is        2.6 secs

     Computing kpt #:    16
     total cpu time spent up to now is        2.7 secs

     Computing kpt #:    17
     total cpu time spent up to now is        2.7 secs

     Computing kpt #:    18
     total cpu time spent up to now is        2.8 secs

     Computing kpt #:    19
     total cpu time spent up to now is        2.8 secs

     Computing kpt #:    20
     total cpu time spent up to now is        2.9 secs

     Computing kpt #:    21
     total cpu time spent up to now is        2.9 secs

     Computing kpt #:    22
     total cpu time spent up to now is        3.0 secs

     Computing kpt #:    23
     total cpu time spent up to now is        3.0 secs

     Computing kpt #:    24
     total cpu time spent up to now is        3.1 secs

     Computing kpt #:    25
     total cpu time spent up to now is        3.1 secs

     Computing kpt #:    26
     total cpu time spent up to now is        3.2 secs

     Computing kpt #:    27
     total cpu time spent up to now is        3.2 secs

     Computing kpt #:    28
     total cpu time spent up to now is        3.3 secs

     Computing kpt #:    29
     total cpu time spent up to now is        3.3 secs

     ethr =  6.25E-09,  avg # of iterations = 10.5

     total cpu time spent up to now is        3.3 secs

     End of band structure calculation

          k = 0.0000 0.0000 0.0000 (   321 PWs)   bands (ev):

   -69.8476 -35.4771 -35.4771 -35.4771   9.2375  16.2207  16.2207  16.2207
    17.8427  17.8427  41.4911  41.4911

     occupation numbers 
     1.0000   1.0000   1.0000   1.0000   1.0000   1.0000   1.0000   1.0000
     0.2639   0.2639   0.0000   0.0000

          k = 0.1083 0.1083 0.0000 (   345 PWs)   bands (ev):

   -69.8433 -35.6040 -35.5647 -35.5535   9.8378  15.9288  16.0623  16.4464
    17.4274  17.5877  38.3920  40.5437

     occupation numbers 
     1.0000   1.0000   1.0000   1.0000   1.0000   1.0000   1.0000   1.0000
     0.7904   0.5996   0.0000   0.0000

          k = 0.2165 0.2165 0.0000 (   346 PWs)   bands (ev):

   -69.8192 -35.7287 -35.6040 -35.5592  11.4770  15.5325  15.8700  17.3327
    17.3532  17.6376  32.9432  38.0134

     occupation numbers 
     1.0000   1.0000   1.0000   1.0000   1.0000   1.0000   1.0000   0.8720
     0.8565   0.5317   0.0000   0.0000

          k = 0.3248 0.3248 0.0000 (   344 PWs)   bands (ev):

   -69.7944 -35.8271 -35.6624 -35.5464  13.0215  15.1325  16.5178  17.4838
    17.8641  18.3256  27.7782  35.9545

     occupation numbers 
     1.0000   1.0000   1.0000   1.0000   1.0000   1.0000   1.0000   0.7298
     0.2403   0.0106   0.0000   0.0000

          k =-0.4330-0.4330 0.0000 (   340 PWs)   bands (ev):

   -69.7839 -35.8621 -35.6706 -35.5481  13.3336  14.9579  17.5575  17.8848
    17.9320  18.8737  25.0787  35.2000

     occupation numbers 
     1.0000   1.0000   1.0000   1.0000   1.0000   1.0000   0.6394   0.2186
     0.1734   0.0000   0.0000   0.0000

          k = 0.2165 0.1083 0.1083 (   343 PWs)   bands (ev):

   -69.8259 -35.6960 -35.5693 -35.5587  10.9902  15.7229  15.7635  17.1588
    17.3232  17.6875  35.5203  36.6590

     occupation numbers 
     1.0000   1.0000   1.0000   1.0000   1.0000   1.0000   1.0000   0.9589
     0.8787   0.4627   0.0000   0.0000

          k = 0.3248 0.2165 0.1083 (   345 PWs)   bands (ev):

   -69.8018 -35.7932 -35.6327 -35.5721  12.7655  15.3132  15.6598  17.3256
    17.7917  18.3544  30.4873  34.0956

     occupation numbers 
     1.0000   1.0000   1.0000   1.0000   1.0000   1.0000   1.0000   0.8770
     0.3247   0.0081   0.0000   0.0000

          k = 0.4330 0.3248 0.1083 (   338 PWs)   bands (ev):

   -69.7834 -35.8375 -35.6684 -35.5554  13.6144  15.0878  16.3956  17.5173
    18.1213  19.8607  25.9901  32.8278

     occupation numbers 
     1.0000   1.0000   1.0000   1.0000   1.0000   1.0000   1.0000   0.6902
     0.0552   0.0000   0.0000   0.0000

          k = 0.4330 0.2165 0.2165 (   336 PWs)   bands (ev):

   -69.7832 -35.8146 -35.6667 -35.5668  14.0865  15.0633  15.5494  17.5340
    17.9845  20.3717  28.4053  29.2359

     occupation numbers 
     1.0000   1.0000   1.0000   1.0000   1.0000   1.0000   1.0000   0.6694
     0.1308   0.0000   0.0000   0.0000

          k = 0.5413 0.3248 0.2165 (   336 PWs)   bands (ev):

   -69.7759 -35.8159 -35.7135 -35.5607  14.3796  15.0869  15.5926  17.7362
    18.0371  22.5836  25.1985  28.2842

     occupation numbers 
     1.0000   1.0000   1.0000   1.0000   1.0000   1.0000   1.0000   0.3965
     0.0960   0.0000   0.0000   0.0000

          k = 0.2165 0.2165 0.2165 (   345 PWs)   bands (ev):

   -69.8081 -35.7655 -35.5993 -35.5993  12.4823  15.3101  15.3101  17.5681
    17.5681  18.4012  33.2115  33.2115

     occupation numbers 
     1.0000   1.0000   1.0000   1.0000   1.0000   1.0000   1.0000   0.6255
     0.6255   0.0051   0.0000   0.0000

          k = 0.3248 0.3248 0.2165 (   338 PWs)   bands (ev):

   -69.7890 -35.8023 -35.6425 -35.5961  13.9607  15.0172  15.4017  17.6601
    17.8117  20.1582  28.3847  31.6695

     occupation numbers 
     1.0000   1.0000   1.0000   1.0000   1.0000   1.0000   1.0000   0.5006
     0.3001   0.0000   0.0000   0.0000

          k = 0.4330 0.4330 0.2165 (   336 PWs)   bands (ev):

   -69.7814 -35.8281 -35.6682 -35.5862  14.0999  14.8953  16.0690  17.7727
    17.9666  21.7988  25.1917  31.1185

     occupation numbers 
     1.0000   1.0000   1.0000   1.0000   1.0000   1.0000   1.0000   0.3487
     0.1445   0.0000   0.0000   0.0000

          k = 0.0000 0.0000 0.2165 (   345 PWs)   bands (ev):

   -69.8336 -35.6200 -35.5834 -35.5834  10.4306  16.1277  16.1277  16.4459
    16.9944  17.7670  37.6992  39.5862

     occupation numbers 
     1.0000   1.0000   1.0000   1.0000   1.0000   1.0000   1.0000   1.0000
     0.9895   0.3561   0.0000   0.0000

          k = 0.4330 0.3248 0.3248 (   339 PWs)   bands (ev):

   -69.7815 -35.7912 -35.7102 -35.6242  14.5956  14.9912  15.2995  17.7854
    17.9180  22.7585  26.6875  27.7726

     occupation numbers 
     1.0000   1.0000   1.0000   1.0000   1.0000   1.0000   1.0000   0.3327
     0.1861   0.0000   0.0000   0.0000

          k = 0.0000-0.1083 0.3248 (   340 PWs)   bands (ev):

   -69.8091 -35.7044 -35.6168 -35.5701  11.9928  15.8650  15.9051  16.8785
    17.2785  18.0886  33.3758  37.0365

     occupation numbers 
     1.0000   1.0000   1.0000   1.0000   1.0000   1.0000   1.0000   0.9966
     0.9072   0.0690   0.0000   0.0000

          k = 0.0000-0.2165 0.4330 (   337 PWs)   bands (ev):

   -69.7851 -35.8133 -35.6494 -35.5589  13.4644  15.5694  15.7504  17.2671
    18.3327  18.8154  28.1116  35.1648

     occupation numbers 
     1.0000   1.0000   1.0000   1.0000   1.0000   1.0000   1.0000   0.9136
     0.0099   0.0000   0.0000   0.0000

          k = 0.1083-0.1083 0.4330 (   340 PWs)   bands (ev):

   -69.7866 -35.7715 -35.6575 -35.6067  13.4602  15.3502  15.9922  16.9277
    17.8865  18.9333  31.0485  31.6791

     occupation numbers 
     1.0000   1.0000   1.0000   1.0000   1.0000   1.0000   1.0000   0.9944
     0.2168   0.0000   0.0000   0.0000

          k =-0.8660-0.3248-0.3248 (   336 PWs)   bands (ev):

   -69.7754 -35.8419 -35.6686 -35.5716  13.7367  15.4131  16.1105  17.2606
    18.8694  20.1543  25.1425  34.3157

     occupation numbers 
     1.0000   1.0000   1.0000   1.0000   1.0000   1.0000   1.0000   0.9170
     0.0000   0.0000   0.0000   0.0000

          k =-0.7578-0.2165-0.3248 (   342 PWs)   bands (ev):

   -69.7712 -35.8276 -35.7259 -35.6005  14.2205  15.1739  15.6928  17.2884
    18.3391  21.2058  26.4408  30.0788

     occupation numbers 
     1.0000   1.0000   1.0000   1.0000   1.0000   1.0000   1.0000   0.9013
     0.0094   0.0000   0.0000   0.0000

          k =-0.6495-0.2165-0.2165 (   345 PWs)   bands (ev):

   -69.7656 -35.8045 -35.8045 -35.6062  14.8543  14.8543  15.2746  17.9094
    17.9094  24.6220  24.6220  26.8785

     occupation numbers 
     1.0000   1.0000   1.0000   1.0000   1.0000   1.0000   1.0000   0.1943
     0.1943   0.0000   0.0000   0.0000

          k = 0.4330 0.4330 0.4330 (   336 PWs)   bands (ev):

   -69.7801 -35.7095 -35.7095 -35.7095  14.9934  14.9934  14.9934  17.9362
    17.9362  26.0811  26.0811  26.0811

     occupation numbers 
     1.0000   1.0000   1.0000   1.0000   1.0000   1.0000   1.0000   0.1697
     0.1697   0.0000   0.0000   0.0000

          k = 0.0000 0.0000 0.4330 (   341 PWs)   bands (ev):

   -69.7883 -35.6956 -35.6703 -35.6703  13.1727  15.5525  16.5536  16.5536
    17.3155  18.6846  34.1431  34.1431

     occupation numbers 
     1.0000   1.0000   1.0000   1.0000   1.0000   1.0000   0.9999   0.9999
     0.8841   0.0002   0.0000   0.0000

          k = 0.0000-0.1083 0.5413 (   337 PWs)   bands (ev):

   -69.7664 -35.7799 -35.6995 -35.6538  14.1067  14.8672  16.6318  17.0222
    18.2096  20.3005  29.1025  31.8573

     occupation numbers 
     1.0000   1.0000   1.0000   1.0000   1.0000   1.0000   0.9998   0.9865
     0.0286   0.0000   0.0000   0.0000

          k =-0.8660-0.2165-0.2165 (   342 PWs)   bands (ev):

   -69.7583 -35.8530 -35.7208 -35.6451  14.2222  14.7677  16.5447  17.1043
    18.6545  22.7269  25.3861  30.9309

     occupation numbers 
     1.0000   1.0000   1.0000   1.0000   1.0000   1.0000   0.9999   0.9730
     0.0003   0.0000   0.0000   0.0000

          k =-0.7578-0.1083-0.2165 (   337 PWs)   bands (ev):

   -69.7520 -35.8073 -35.7494 -35.6515  14.3352  14.3683  16.6617  17.8393
    18.4342  23.1634  27.3070  27.9781

     occupation numbers 
     1.0000   1.0000   1.0000   1.0000   1.0000   1.0000   0.9997   0.2678
     0.0037   0.0000   0.0000   0.0000

          k = 0.0000 0.0000 0.6495 (   338 PWs)   bands (ev):

   -69.7476 -35.7555 -35.7449 -35.7449  14.0169  14.2167  17.7534  17.7534
    18.2159  22.4228  29.2948  29.2948

     occupation numbers 
     1.0000   1.0000   1.0000   1.0000   1.0000   1.0000   0.3737   0.3737
     0.0272   0.0000   0.0000   0.0000

          k =-0.8660-0.1083-0.1083 (   352 PWs)   bands (ev):

   -69.7421 -35.8528 -35.8041 -35.7380  13.8629  13.9272  17.8788  17.9826
    18.4600  25.4109  26.2277  28.2179

     occupation numbers 
     1.0000   1.0000   1.0000   1.0000   1.0000   1.0000   0.2247   0.1322
     0.0028   0.0000   0.0000   0.0000

          k =-0.8660-0.8660-0.8660 (   370 PWs)   bands (ev):

   -69.7379 -35.8565 -35.8565 -35.8565  13.5851  13.5851  18.3841  18.3841
    18.3841  27.0475  27.0475  27.0475

     occupation numbers 
     1.0000   1.0000   1.0000   1.0000   1.0000   1.0000   0.0061   0.0061
     0.0061   0.0000   0.0000   0.0000

     the Fermi energy is    17.6605 ev

     Writing output data file fe.save/

     init_run     :      0.56s CPU      0.57s WALL (       1 calls)
     electrons    :      1.34s CPU      1.37s WALL (       1 calls)

     Called by init_run:
     wfcinit      :      0.00s CPU      0.00s WALL (       1 calls)
     wfcinit:atom :      0.01s CPU      0.01s WALL (      29 calls)
     wfcinit:wfcr :      0.11s CPU      0.13s WALL (      29 calls)
     potinit      :      0.00s CPU      0.01s WALL (       1 calls)
     hinit0       :      0.53s CPU      0.54s WALL (       1 calls)

     Called by electrons:
     c_bands      :      1.33s CPU      1.37s WALL (       1 calls)
     v_of_rho     :      0.00s CPU      0.01s WALL (       1 calls)
     v_h          :      0.00s CPU      0.00s WALL (       1 calls)
     v_xc         :      0.00s CPU      0.01s WALL (       1 calls)
     newd         :      0.01s CPU      0.01s WALL (       1 calls)

     Called by c_bands:
     init_us_2    :      0.01s CPU      0.01s WALL (      29 calls)
     cegterg      :      1.17s CPU      1.20s WALL (      29 calls)

     Called by sum_band:

     Called by *egterg:
     h_psi        :      0.53s CPU      0.55s WALL (     363 calls)
     s_psi        :      0.06s CPU      0.06s WALL (     363 calls)
     g_psi        :      0.01s CPU      0.01s WALL (     305 calls)
     cdiaghg      :      0.30s CPU      0.31s WALL (     334 calls)
     cegterg:over :      0.15s CPU      0.15s WALL (     305 calls)
     cegterg:upda :      0.11s CPU      0.11s WALL (     305 calls)
     cegterg:last :      0.08s CPU      0.08s WALL (      58 calls)

     Called by h_psi:
     h_psi:pot    :      0.53s CPU      0.55s WALL (     363 calls)
     h_psi:calbec :      0.06s CPU      0.06s WALL (     363 calls)
     vloc_psi     :      0.41s CPU      0.43s WALL (     363 calls)
     add_vuspsi   :      0.06s CPU      0.06s WALL (     363 calls)

     General routines
     calbec       :      0.05s CPU      0.06s WALL (     363 calls)
     fft          :      0.00s CPU      0.00s WALL (      12 calls)
     fftw         :      0.30s CPU      0.31s WALL (    5086 calls)
     davcio       :      0.00s CPU      0.00s WALL (      58 calls)

     Parallel routines

     PWSCF        :      3.28s CPU      3.35s WALL


   This run was terminated on:  22:29:24  11Nov2020            

=------------------------------------------------------------------------------=
   JOB DONE.
=------------------------------------------------------------------------------=
