
     Program PWSCF v.6.4.1 starts on 17Oct2020 at 19:33:36 

     This program is part of the open-source Quantum ESPRESSO suite
     for quantum simulation of materials; please cite
         "P. Giannozzi et al., J. Phys.:Condens. Matter 21 395502 (2009);
         "P. Giannozzi et al., J. Phys.:Condens. Matter 29 465901 (2017);
          URL http://www.quantum-espresso.org", 
     in publications or presentations arising from this work. More details at
     http://www.quantum-espresso.org/quote

     Parallel version (MPI), running on     4 processors

     MPI processes distributed on     1 nodes
     R & G space division:  proc/nbgrp/npool/nimage =       4
     Reading input from fe-fm.pwi
Warning: card &IONS ignored
Warning: card / ignored
Warning: card &CELL ignored
Warning: card / ignored

     Current dimensions of program PWSCF are:
     Max number of different atomic species (ntypx) = 10
     Max number of k-points (npk) =  40000
     Max angular momentum in pseudopotentials (lmaxx) =  3

     Subspace diagonalization in iterative solution of the eigenvalue problem:
     a serial algorithm will be used

     Found symmetry operation: I + ( -0.5000 -0.5000 -0.5000)
     This is a supercell, fractional translations are disabled
     Message from routine setup:
     DEPRECATED: symmetry with ibrav=0, use correct ibrav instead

     Parallelization info
     --------------------
     sticks:   dense  smooth     PW     G-vecs:    dense   smooth      PW
     Min         187      93     31                 3877     1361     261
     Max         188      94     33                 3882     1364     262
     Sum         749     373    129                15515     5449    1045



     bravais-lattice index     =            0
     lattice parameter (alat)  =       5.4235  a.u.
     unit-cell volume          =     159.5300 (a.u.)^3
     number of atoms/cell      =            2
     number of atomic types    =            1
     number of electrons       =        32.00
     number of Kohn-Sham states=           20
     kinetic-energy cutoff     =      40.0000  Ry
     charge density cutoff     =     320.0000  Ry
     convergence threshold     =      1.0E-08
     mixing beta               =       0.3000
     number of iterations used =            8  plain     mixing
     Exchange-correlation      = PBE ( 1  4  3  4 0 0)

     celldm(1)=   5.423514  celldm(2)=   0.000000  celldm(3)=   0.000000
     celldm(4)=   0.000000  celldm(5)=   0.000000  celldm(6)=   0.000000

     crystal axes: (cart. coord. in units of alat)
               a(1) = (   1.000000   0.000000   0.000000 )  
               a(2) = (   0.000000   1.000000   0.000000 )  
               a(3) = (   0.000000   0.000000   1.000000 )  

     reciprocal axes: (cart. coord. in units 2 pi/alat)
               b(1) = (  1.000000  0.000000  0.000000 )  
               b(2) = (  0.000000  1.000000  0.000000 )  
               b(3) = (  0.000000  0.000000  1.000000 )  


     PseudoPot. # 1 for Fe read from file:
     /home/xing/datas/pseudo/Fe.pbe-spn-rrkjus_psl.1.0.0.UPF
     MD5 check sum: 72ea77fed8e64ab3a2ccf2804dfc1862
     Pseudo is Ultrasoft + core correction, Zval = 16.0
     Generated using "atomic" code by A. Dal Corso v.6.3
     Using radial grid of 1191 points,  6 beta functions with: 
                l(1) =   0
                l(2) =   0
                l(3) =   1
                l(4) =   1
                l(5) =   2
                l(6) =   2
     Q(r) pseudized with 0 coefficients 


     atomic species   valence    mass     pseudopotential
        Fe            16.00    55.84500     Fe( 1.00)

     Starting magnetic structure 
     atomic species   magnetization
        Fe           1.000

     48 Sym. Ops., with inversion, found


                                    s                        frac. trans.

      isym =  1     identity                                     

 cryst.   s( 1) = (     1          0          0      )
                  (     0          1          0      )
                  (     0          0          1      )

 cart.    s( 1) = (  1.0000000  0.0000000  0.0000000 )
                  (  0.0000000  1.0000000  0.0000000 )
                  (  0.0000000  0.0000000  1.0000000 )


      isym =  2     180 deg rotation - cart. axis [0,0,1]        

 cryst.   s( 2) = (    -1          0          0      )
                  (     0         -1          0      )
                  (     0          0          1      )

 cart.    s( 2) = ( -1.0000000  0.0000000  0.0000000 )
                  (  0.0000000 -1.0000000  0.0000000 )
                  (  0.0000000  0.0000000  1.0000000 )


      isym =  3     180 deg rotation - cart. axis [0,1,0]        

 cryst.   s( 3) = (    -1          0          0      )
                  (     0          1          0      )
                  (     0          0         -1      )

 cart.    s( 3) = ( -1.0000000  0.0000000  0.0000000 )
                  (  0.0000000  1.0000000  0.0000000 )
                  (  0.0000000  0.0000000 -1.0000000 )


      isym =  4     180 deg rotation - cart. axis [1,0,0]        

 cryst.   s( 4) = (     1          0          0      )
                  (     0         -1          0      )
                  (     0          0         -1      )

 cart.    s( 4) = (  1.0000000  0.0000000  0.0000000 )
                  (  0.0000000 -1.0000000  0.0000000 )
                  (  0.0000000  0.0000000 -1.0000000 )


      isym =  5     180 deg rotation - cart. axis [1,1,0]        

 cryst.   s( 5) = (     0          1          0      )
                  (     1          0          0      )
                  (     0          0         -1      )

 cart.    s( 5) = (  0.0000000  1.0000000  0.0000000 )
                  (  1.0000000  0.0000000  0.0000000 )
                  (  0.0000000  0.0000000 -1.0000000 )


      isym =  6     180 deg rotation - cart. axis [1,-1,0]       

 cryst.   s( 6) = (     0         -1          0      )
                  (    -1          0          0      )
                  (     0          0         -1      )

 cart.    s( 6) = (  0.0000000 -1.0000000  0.0000000 )
                  ( -1.0000000  0.0000000  0.0000000 )
                  (  0.0000000  0.0000000 -1.0000000 )


      isym =  7      90 deg rotation - cart. axis [0,0,-1]       

 cryst.   s( 7) = (     0         -1          0      )
                  (     1          0          0      )
                  (     0          0          1      )

 cart.    s( 7) = (  0.0000000  1.0000000  0.0000000 )
                  ( -1.0000000  0.0000000  0.0000000 )
                  (  0.0000000  0.0000000  1.0000000 )


      isym =  8      90 deg rotation - cart. axis [0,0,1]        

 cryst.   s( 8) = (     0          1          0      )
                  (    -1          0          0      )
                  (     0          0          1      )

 cart.    s( 8) = (  0.0000000 -1.0000000  0.0000000 )
                  (  1.0000000  0.0000000  0.0000000 )
                  (  0.0000000  0.0000000  1.0000000 )


      isym =  9     180 deg rotation - cart. axis [1,0,1]        

 cryst.   s( 9) = (     0          0          1      )
                  (     0         -1          0      )
                  (     1          0          0      )

 cart.    s( 9) = (  0.0000000  0.0000000  1.0000000 )
                  (  0.0000000 -1.0000000  0.0000000 )
                  (  1.0000000  0.0000000  0.0000000 )


      isym = 10     180 deg rotation - cart. axis [-1,0,1]       

 cryst.   s(10) = (     0          0         -1      )
                  (     0         -1          0      )
                  (    -1          0          0      )

 cart.    s(10) = (  0.0000000  0.0000000 -1.0000000 )
                  (  0.0000000 -1.0000000  0.0000000 )
                  ( -1.0000000  0.0000000  0.0000000 )


      isym = 11      90 deg rotation - cart. axis [0,1,0]        

 cryst.   s(11) = (     0          0         -1      )
                  (     0          1          0      )
                  (     1          0          0      )

 cart.    s(11) = (  0.0000000  0.0000000  1.0000000 )
                  (  0.0000000  1.0000000  0.0000000 )
                  ( -1.0000000  0.0000000  0.0000000 )


      isym = 12      90 deg rotation - cart. axis [0,-1,0]       

 cryst.   s(12) = (     0          0          1      )
                  (     0          1          0      )
                  (    -1          0          0      )

 cart.    s(12) = (  0.0000000  0.0000000 -1.0000000 )
                  (  0.0000000  1.0000000  0.0000000 )
                  (  1.0000000  0.0000000  0.0000000 )


      isym = 13     180 deg rotation - cart. axis [0,1,1]        

 cryst.   s(13) = (    -1          0          0      )
                  (     0          0          1      )
                  (     0          1          0      )

 cart.    s(13) = ( -1.0000000  0.0000000  0.0000000 )
                  (  0.0000000  0.0000000  1.0000000 )
                  (  0.0000000  1.0000000  0.0000000 )


      isym = 14     180 deg rotation - cart. axis [0,1,-1]       

 cryst.   s(14) = (    -1          0          0      )
                  (     0          0         -1      )
                  (     0         -1          0      )

 cart.    s(14) = ( -1.0000000  0.0000000  0.0000000 )
                  (  0.0000000  0.0000000 -1.0000000 )
                  (  0.0000000 -1.0000000  0.0000000 )


      isym = 15      90 deg rotation - cart. axis [-1,0,0]       

 cryst.   s(15) = (     1          0          0      )
                  (     0          0         -1      )
                  (     0          1          0      )

 cart.    s(15) = (  1.0000000  0.0000000  0.0000000 )
                  (  0.0000000  0.0000000  1.0000000 )
                  (  0.0000000 -1.0000000  0.0000000 )


      isym = 16      90 deg rotation - cart. axis [1,0,0]        

 cryst.   s(16) = (     1          0          0      )
                  (     0          0          1      )
                  (     0         -1          0      )

 cart.    s(16) = (  1.0000000  0.0000000  0.0000000 )
                  (  0.0000000  0.0000000 -1.0000000 )
                  (  0.0000000  1.0000000  0.0000000 )


      isym = 17     120 deg rotation - cart. axis [-1,-1,-1]     

 cryst.   s(17) = (     0          0          1      )
                  (     1          0          0      )
                  (     0          1          0      )

 cart.    s(17) = (  0.0000000  1.0000000  0.0000000 )
                  (  0.0000000  0.0000000  1.0000000 )
                  (  1.0000000  0.0000000  0.0000000 )


      isym = 18     120 deg rotation - cart. axis [-1,1,1]       

 cryst.   s(18) = (     0          0         -1      )
                  (    -1          0          0      )
                  (     0          1          0      )

 cart.    s(18) = (  0.0000000 -1.0000000  0.0000000 )
                  (  0.0000000  0.0000000  1.0000000 )
                  ( -1.0000000  0.0000000  0.0000000 )


      isym = 19     120 deg rotation - cart. axis [1,1,-1]       

 cryst.   s(19) = (     0          0         -1      )
                  (     1          0          0      )
                  (     0         -1          0      )

 cart.    s(19) = (  0.0000000  1.0000000  0.0000000 )
                  (  0.0000000  0.0000000 -1.0000000 )
                  ( -1.0000000  0.0000000  0.0000000 )


      isym = 20     120 deg rotation - cart. axis [1,-1,1]       

 cryst.   s(20) = (     0          0          1      )
                  (    -1          0          0      )
                  (     0         -1          0      )

 cart.    s(20) = (  0.0000000 -1.0000000  0.0000000 )
                  (  0.0000000  0.0000000 -1.0000000 )
                  (  1.0000000  0.0000000  0.0000000 )


      isym = 21     120 deg rotation - cart. axis [1,1,1]        

 cryst.   s(21) = (     0          1          0      )
                  (     0          0          1      )
                  (     1          0          0      )

 cart.    s(21) = (  0.0000000  0.0000000  1.0000000 )
                  (  1.0000000  0.0000000  0.0000000 )
                  (  0.0000000  1.0000000  0.0000000 )


      isym = 22     120 deg rotation - cart. axis [-1,1,-1]      

 cryst.   s(22) = (     0         -1          0      )
                  (     0          0         -1      )
                  (     1          0          0      )

 cart.    s(22) = (  0.0000000  0.0000000  1.0000000 )
                  ( -1.0000000  0.0000000  0.0000000 )
                  (  0.0000000 -1.0000000  0.0000000 )


      isym = 23     120 deg rotation - cart. axis [1,-1,-1]      

 cryst.   s(23) = (     0         -1          0      )
                  (     0          0          1      )
                  (    -1          0          0      )

 cart.    s(23) = (  0.0000000  0.0000000 -1.0000000 )
                  ( -1.0000000  0.0000000  0.0000000 )
                  (  0.0000000  1.0000000  0.0000000 )


      isym = 24     120 deg rotation - cart. axis [-1,-1,1]      

 cryst.   s(24) = (     0          1          0      )
                  (     0          0         -1      )
                  (    -1          0          0      )

 cart.    s(24) = (  0.0000000  0.0000000 -1.0000000 )
                  (  1.0000000  0.0000000  0.0000000 )
                  (  0.0000000 -1.0000000  0.0000000 )


      isym = 25     inversion                                    

 cryst.   s(25) = (    -1          0          0      )
                  (     0         -1          0      )
                  (     0          0         -1      )

 cart.    s(25) = ( -1.0000000  0.0000000  0.0000000 )
                  (  0.0000000 -1.0000000  0.0000000 )
                  (  0.0000000  0.0000000 -1.0000000 )


      isym = 26     inv. 180 deg rotation - cart. axis [0,0,1]   

 cryst.   s(26) = (     1          0          0      )
                  (     0          1          0      )
                  (     0          0         -1      )

 cart.    s(26) = (  1.0000000  0.0000000  0.0000000 )
                  (  0.0000000  1.0000000  0.0000000 )
                  (  0.0000000  0.0000000 -1.0000000 )


      isym = 27     inv. 180 deg rotation - cart. axis [0,1,0]   

 cryst.   s(27) = (     1          0          0      )
                  (     0         -1          0      )
                  (     0          0          1      )

 cart.    s(27) = (  1.0000000  0.0000000  0.0000000 )
                  (  0.0000000 -1.0000000  0.0000000 )
                  (  0.0000000  0.0000000  1.0000000 )


      isym = 28     inv. 180 deg rotation - cart. axis [1,0,0]   

 cryst.   s(28) = (    -1          0          0      )
                  (     0          1          0      )
                  (     0          0          1      )

 cart.    s(28) = ( -1.0000000  0.0000000  0.0000000 )
                  (  0.0000000  1.0000000  0.0000000 )
                  (  0.0000000  0.0000000  1.0000000 )


      isym = 29     inv. 180 deg rotation - cart. axis [1,1,0]   

 cryst.   s(29) = (     0         -1          0      )
                  (    -1          0          0      )
                  (     0          0          1      )

 cart.    s(29) = (  0.0000000 -1.0000000  0.0000000 )
                  ( -1.0000000  0.0000000  0.0000000 )
                  (  0.0000000  0.0000000  1.0000000 )


      isym = 30     inv. 180 deg rotation - cart. axis [1,-1,0]  

 cryst.   s(30) = (     0          1          0      )
                  (     1          0          0      )
                  (     0          0          1      )

 cart.    s(30) = (  0.0000000  1.0000000  0.0000000 )
                  (  1.0000000  0.0000000  0.0000000 )
                  (  0.0000000  0.0000000  1.0000000 )


      isym = 31     inv.  90 deg rotation - cart. axis [0,0,-1]  

 cryst.   s(31) = (     0          1          0      )
                  (    -1          0          0      )
                  (     0          0         -1      )

 cart.    s(31) = (  0.0000000 -1.0000000  0.0000000 )
                  (  1.0000000  0.0000000  0.0000000 )
                  (  0.0000000  0.0000000 -1.0000000 )


      isym = 32     inv.  90 deg rotation - cart. axis [0,0,1]   

 cryst.   s(32) = (     0         -1          0      )
                  (     1          0          0      )
                  (     0          0         -1      )

 cart.    s(32) = (  0.0000000  1.0000000  0.0000000 )
                  ( -1.0000000  0.0000000  0.0000000 )
                  (  0.0000000  0.0000000 -1.0000000 )


      isym = 33     inv. 180 deg rotation - cart. axis [1,0,1]   

 cryst.   s(33) = (     0          0         -1      )
                  (     0          1          0      )
                  (    -1          0          0      )

 cart.    s(33) = (  0.0000000  0.0000000 -1.0000000 )
                  (  0.0000000  1.0000000  0.0000000 )
                  ( -1.0000000  0.0000000  0.0000000 )


      isym = 34     inv. 180 deg rotation - cart. axis [-1,0,1]  

 cryst.   s(34) = (     0          0          1      )
                  (     0          1          0      )
                  (     1          0          0      )

 cart.    s(34) = (  0.0000000  0.0000000  1.0000000 )
                  (  0.0000000  1.0000000  0.0000000 )
                  (  1.0000000  0.0000000  0.0000000 )


      isym = 35     inv.  90 deg rotation - cart. axis [0,1,0]   

 cryst.   s(35) = (     0          0          1      )
                  (     0         -1          0      )
                  (    -1          0          0      )

 cart.    s(35) = (  0.0000000  0.0000000 -1.0000000 )
                  (  0.0000000 -1.0000000  0.0000000 )
                  (  1.0000000  0.0000000  0.0000000 )


      isym = 36     inv.  90 deg rotation - cart. axis [0,-1,0]  

 cryst.   s(36) = (     0          0         -1      )
                  (     0         -1          0      )
                  (     1          0          0      )

 cart.    s(36) = (  0.0000000  0.0000000  1.0000000 )
                  (  0.0000000 -1.0000000  0.0000000 )
                  ( -1.0000000  0.0000000  0.0000000 )


      isym = 37     inv. 180 deg rotation - cart. axis [0,1,1]   

 cryst.   s(37) = (     1          0          0      )
                  (     0          0         -1      )
                  (     0         -1          0      )

 cart.    s(37) = (  1.0000000  0.0000000  0.0000000 )
                  (  0.0000000  0.0000000 -1.0000000 )
                  (  0.0000000 -1.0000000  0.0000000 )


      isym = 38     inv. 180 deg rotation - cart. axis [0,1,-1]  

 cryst.   s(38) = (     1          0          0      )
                  (     0          0          1      )
                  (     0          1          0      )

 cart.    s(38) = (  1.0000000  0.0000000  0.0000000 )
                  (  0.0000000  0.0000000  1.0000000 )
                  (  0.0000000  1.0000000  0.0000000 )


      isym = 39     inv.  90 deg rotation - cart. axis [-1,0,0]  

 cryst.   s(39) = (    -1          0          0      )
                  (     0          0          1      )
                  (     0         -1          0      )

 cart.    s(39) = ( -1.0000000  0.0000000  0.0000000 )
                  (  0.0000000  0.0000000 -1.0000000 )
                  (  0.0000000  1.0000000  0.0000000 )


      isym = 40     inv.  90 deg rotation - cart. axis [1,0,0]   

 cryst.   s(40) = (    -1          0          0      )
                  (     0          0         -1      )
                  (     0          1          0      )

 cart.    s(40) = ( -1.0000000  0.0000000  0.0000000 )
                  (  0.0000000  0.0000000  1.0000000 )
                  (  0.0000000 -1.0000000  0.0000000 )


      isym = 41     inv. 120 deg rotation - cart. axis [-1,-1,-1]

 cryst.   s(41) = (     0          0         -1      )
                  (    -1          0          0      )
                  (     0         -1          0      )

 cart.    s(41) = (  0.0000000 -1.0000000  0.0000000 )
                  (  0.0000000  0.0000000 -1.0000000 )
                  ( -1.0000000  0.0000000  0.0000000 )


      isym = 42     inv. 120 deg rotation - cart. axis [-1,1,1]  

 cryst.   s(42) = (     0          0          1      )
                  (     1          0          0      )
                  (     0         -1          0      )

 cart.    s(42) = (  0.0000000  1.0000000  0.0000000 )
                  (  0.0000000  0.0000000 -1.0000000 )
                  (  1.0000000  0.0000000  0.0000000 )


      isym = 43     inv. 120 deg rotation - cart. axis [1,1,-1]  

 cryst.   s(43) = (     0          0          1      )
                  (    -1          0          0      )
                  (     0          1          0      )

 cart.    s(43) = (  0.0000000 -1.0000000  0.0000000 )
                  (  0.0000000  0.0000000  1.0000000 )
                  (  1.0000000  0.0000000  0.0000000 )


      isym = 44     inv. 120 deg rotation - cart. axis [1,-1,1]  

 cryst.   s(44) = (     0          0         -1      )
                  (     1          0          0      )
                  (     0          1          0      )

 cart.    s(44) = (  0.0000000  1.0000000  0.0000000 )
                  (  0.0000000  0.0000000  1.0000000 )
                  ( -1.0000000  0.0000000  0.0000000 )


      isym = 45     inv. 120 deg rotation - cart. axis [1,1,1]   

 cryst.   s(45) = (     0         -1          0      )
                  (     0          0         -1      )
                  (    -1          0          0      )

 cart.    s(45) = (  0.0000000  0.0000000 -1.0000000 )
                  ( -1.0000000  0.0000000  0.0000000 )
                  (  0.0000000 -1.0000000  0.0000000 )


      isym = 46     inv. 120 deg rotation - cart. axis [-1,1,-1] 

 cryst.   s(46) = (     0          1          0      )
                  (     0          0          1      )
                  (    -1          0          0      )

 cart.    s(46) = (  0.0000000  0.0000000 -1.0000000 )
                  (  1.0000000  0.0000000  0.0000000 )
                  (  0.0000000  1.0000000  0.0000000 )


      isym = 47     inv. 120 deg rotation - cart. axis [1,-1,-1] 

 cryst.   s(47) = (     0          1          0      )
                  (     0          0         -1      )
                  (     1          0          0      )

 cart.    s(47) = (  0.0000000  0.0000000  1.0000000 )
                  (  1.0000000  0.0000000  0.0000000 )
                  (  0.0000000 -1.0000000  0.0000000 )


      isym = 48     inv. 120 deg rotation - cart. axis [-1,-1,1] 

 cryst.   s(48) = (     0         -1          0      )
                  (     0          0          1      )
                  (     1          0          0      )

 cart.    s(48) = (  0.0000000  0.0000000  1.0000000 )
                  ( -1.0000000  0.0000000  0.0000000 )
                  (  0.0000000  1.0000000  0.0000000 )


   Cartesian axes

     site n.     atom                  positions (alat units)
         1           Fe  tau(   1) = (   0.0000000   0.0000000   0.0000000  )
         2           Fe  tau(   2) = (   0.5000000   0.5000000   0.5000000  )

   Crystallographic axes

     site n.     atom                  positions (cryst. coord.)
         1           Fe  tau(   1) = (  0.0000000  0.0000000  0.0000000  )
         2           Fe  tau(   2) = (  0.5000000  0.5000000  0.5000000  )

     number of k points=    20  gaussian smearing, width (Ry)=  0.0300
                       cart. coord. in units 2pi/alat
        k(    1) = (   0.0000000   0.0000000   0.0000000), wk =   0.0046296
        k(    2) = (   0.0000000   0.0000000   0.1666667), wk =   0.0277778
        k(    3) = (   0.0000000   0.0000000   0.3333333), wk =   0.0277778
        k(    4) = (   0.0000000   0.0000000  -0.5000000), wk =   0.0138889
        k(    5) = (   0.0000000   0.1666667   0.1666667), wk =   0.0555556
        k(    6) = (   0.0000000   0.1666667   0.3333333), wk =   0.1111111
        k(    7) = (   0.0000000   0.1666667  -0.5000000), wk =   0.0555556
        k(    8) = (   0.0000000   0.3333333   0.3333333), wk =   0.0555556
        k(    9) = (   0.0000000   0.3333333  -0.5000000), wk =   0.0555556
        k(   10) = (   0.0000000  -0.5000000  -0.5000000), wk =   0.0138889
        k(   11) = (   0.1666667   0.1666667   0.1666667), wk =   0.0370370
        k(   12) = (   0.1666667   0.1666667   0.3333333), wk =   0.1111111
        k(   13) = (   0.1666667   0.1666667  -0.5000000), wk =   0.0555556
        k(   14) = (   0.1666667   0.3333333   0.3333333), wk =   0.1111111
        k(   15) = (   0.1666667   0.3333333  -0.5000000), wk =   0.1111111
        k(   16) = (   0.1666667  -0.5000000  -0.5000000), wk =   0.0277778
        k(   17) = (   0.3333333   0.3333333   0.3333333), wk =   0.0370370
        k(   18) = (   0.3333333   0.3333333  -0.5000000), wk =   0.0555556
        k(   19) = (   0.3333333  -0.5000000  -0.5000000), wk =   0.0277778
        k(   20) = (  -0.5000000  -0.5000000  -0.5000000), wk =   0.0046296

                       cryst. coord.
        k(    1) = (   0.0000000   0.0000000   0.0000000), wk =   0.0046296
        k(    2) = (   0.0000000   0.0000000   0.1666667), wk =   0.0277778
        k(    3) = (   0.0000000   0.0000000   0.3333333), wk =   0.0277778
        k(    4) = (   0.0000000   0.0000000  -0.5000000), wk =   0.0138889
        k(    5) = (   0.0000000   0.1666667   0.1666667), wk =   0.0555556
        k(    6) = (   0.0000000   0.1666667   0.3333333), wk =   0.1111111
        k(    7) = (   0.0000000   0.1666667  -0.5000000), wk =   0.0555556
        k(    8) = (   0.0000000   0.3333333   0.3333333), wk =   0.0555556
        k(    9) = (   0.0000000   0.3333333  -0.5000000), wk =   0.0555556
        k(   10) = (   0.0000000  -0.5000000  -0.5000000), wk =   0.0138889
        k(   11) = (   0.1666667   0.1666667   0.1666667), wk =   0.0370370
        k(   12) = (   0.1666667   0.1666667   0.3333333), wk =   0.1111111
        k(   13) = (   0.1666667   0.1666667  -0.5000000), wk =   0.0555556
        k(   14) = (   0.1666667   0.3333333   0.3333333), wk =   0.1111111
        k(   15) = (   0.1666667   0.3333333  -0.5000000), wk =   0.1111111
        k(   16) = (   0.1666667  -0.5000000  -0.5000000), wk =   0.0277778
        k(   17) = (   0.3333333   0.3333333   0.3333333), wk =   0.0370370
        k(   18) = (   0.3333333   0.3333333  -0.5000000), wk =   0.0555556
        k(   19) = (   0.3333333  -0.5000000  -0.5000000), wk =   0.0277778
        k(   20) = (  -0.5000000  -0.5000000  -0.5000000), wk =   0.0046296

     Dense  grid:    15515 G-vectors     FFT dimensions: (  32,  32,  32)

     Smooth grid:     5449 G-vectors     FFT dimensions: (  24,  24,  24)

     Dynamical RAM for                 wfc:       0.05 MB

     Dynamical RAM for     wfc (w. buffer):       2.13 MB

     Dynamical RAM for           str. fact:       0.06 MB

     Dynamical RAM for           local pot:       0.00 MB

     Dynamical RAM for          nlocal pot:       0.09 MB

     Dynamical RAM for                qrad:       1.24 MB

     Dynamical RAM for          rho,v,vnew:       0.73 MB

     Dynamical RAM for               rhoin:       0.24 MB

     Dynamical RAM for            rho*nmix:       1.89 MB

     Dynamical RAM for           G-vectors:       0.23 MB

     Dynamical RAM for          h,s,v(r/c):       0.29 MB

     Dynamical RAM for          <psi|beta>:       0.01 MB

     Dynamical RAM for                 psi:       0.21 MB

     Dynamical RAM for                hpsi:       0.21 MB

     Dynamical RAM for                spsi:       0.21 MB

     Dynamical RAM for      wfcinit/wfcrot:       0.11 MB

     Dynamical RAM for           addusdens:      11.19 MB

     Estimated static dynamical RAM per process >       7.11 MB

     Estimated max dynamical RAM per process >      18.30 MB

     Estimated total dynamical RAM >      73.20 MB
     Generating pointlists ...
     new r_m :   0.3572 (alat units)  1.9375 (a.u.) for type    1

     Check: negative core charge=   -0.000008

     Initial potential from superposition of free atoms

     starting charge   31.99912, renormalised to   32.00000

     negative rho (up, down):  0.000E+00 4.582E-01
     Starting wfcs are   20 randomized atomic wfcs

     total cpu time spent up to now is        0.8 secs

     Self-consistent Calculation

     iteration #  1     ecut=    40.00 Ry     beta= 0.30
     Davidson diagonalization with overlap
     ethr =  1.00E-02,  avg # of iterations =  3.0

     total cpu time spent up to now is        1.4 secs

     total energy              =    -491.49910000 Ry
     Harris-Foulkes estimate   =    -483.07024133 Ry
     estimated scf accuracy    <       7.98294416 Ry

     total magnetization       =     7.99 Bohr mag/cell
     absolute magnetization    =     9.08 Bohr mag/cell

     iteration #  2     ecut=    40.00 Ry     beta= 0.30
     Davidson diagonalization with overlap
     ethr =  1.00E-02,  avg # of iterations =  1.9

     total cpu time spent up to now is        1.8 secs

     total energy              =    -494.73871139 Ry
     Harris-Foulkes estimate   =    -491.74436994 Ry
     estimated scf accuracy    <       3.96573195 Ry

     total magnetization       =     7.66 Bohr mag/cell
     absolute magnetization    =     8.17 Bohr mag/cell

     iteration #  3     ecut=    40.00 Ry     beta= 0.30
     Davidson diagonalization with overlap
     ethr =  1.00E-02,  avg # of iterations =  1.6

     total cpu time spent up to now is        2.2 secs

     total energy              =    -495.12205901 Ry
     Harris-Foulkes estimate   =    -494.96104287 Ry
     estimated scf accuracy    <       0.44464155 Ry

     total magnetization       =     6.13 Bohr mag/cell
     absolute magnetization    =     6.67 Bohr mag/cell

     iteration #  4     ecut=    40.00 Ry     beta= 0.30
     Davidson diagonalization with overlap
     ethr =  1.39E-03,  avg # of iterations =  1.8

     total cpu time spent up to now is        2.6 secs

     total energy              =    -495.20166373 Ry
     Harris-Foulkes estimate   =    -495.23578158 Ry
     estimated scf accuracy    <       0.09725602 Ry

     total magnetization       =     4.82 Bohr mag/cell
     absolute magnetization    =     5.31 Bohr mag/cell

     iteration #  5     ecut=    40.00 Ry     beta= 0.30
     Davidson diagonalization with overlap
     ethr =  3.04E-04,  avg # of iterations =  2.6

     total cpu time spent up to now is        3.1 secs

     total energy              =    -495.22641714 Ry
     Harris-Foulkes estimate   =    -495.22495089 Ry
     estimated scf accuracy    <       0.02184731 Ry

     total magnetization       =     4.89 Bohr mag/cell
     absolute magnetization    =     5.40 Bohr mag/cell

     iteration #  6     ecut=    40.00 Ry     beta= 0.30
     Davidson diagonalization with overlap
     ethr =  6.83E-05,  avg # of iterations =  2.2

     total cpu time spent up to now is        3.5 secs

     total energy              =    -495.22633779 Ry
     Harris-Foulkes estimate   =    -495.23275240 Ry
     estimated scf accuracy    <       0.07249208 Ry

     total magnetization       =     4.67 Bohr mag/cell
     absolute magnetization    =     5.10 Bohr mag/cell

     iteration #  7     ecut=    40.00 Ry     beta= 0.30
     Davidson diagonalization with overlap
     ethr =  6.83E-05,  avg # of iterations =  1.2

     total cpu time spent up to now is        3.9 secs

     total energy              =    -495.22944757 Ry
     Harris-Foulkes estimate   =    -495.22980493 Ry
     estimated scf accuracy    <       0.00583984 Ry

     total magnetization       =     4.62 Bohr mag/cell
     absolute magnetization    =     5.04 Bohr mag/cell

     iteration #  8     ecut=    40.00 Ry     beta= 0.30
     Davidson diagonalization with overlap
     ethr =  1.82E-05,  avg # of iterations =  2.1

     total cpu time spent up to now is        4.3 secs

     total energy              =    -495.23073145 Ry
     Harris-Foulkes estimate   =    -495.23046979 Ry
     estimated scf accuracy    <       0.00016788 Ry

     total magnetization       =     4.67 Bohr mag/cell
     absolute magnetization    =     5.05 Bohr mag/cell

     iteration #  9     ecut=    40.00 Ry     beta= 0.30
     Davidson diagonalization with overlap
     ethr =  5.25E-07,  avg # of iterations =  2.4

     total cpu time spent up to now is        4.8 secs

     total energy              =    -495.23083103 Ry
     Harris-Foulkes estimate   =    -495.23079600 Ry
     estimated scf accuracy    <       0.00017618 Ry

     total magnetization       =     4.66 Bohr mag/cell
     absolute magnetization    =     5.02 Bohr mag/cell

     iteration # 10     ecut=    40.00 Ry     beta= 0.30
     Davidson diagonalization with overlap
     ethr =  5.25E-07,  avg # of iterations =  2.0

     total cpu time spent up to now is        5.3 secs

     total energy              =    -495.23095887 Ry
     Harris-Foulkes estimate   =    -495.23092220 Ry
     estimated scf accuracy    <       0.00000488 Ry

     total magnetization       =     4.62 Bohr mag/cell
     absolute magnetization    =     4.96 Bohr mag/cell

     iteration # 11     ecut=    40.00 Ry     beta= 0.30
     Davidson diagonalization with overlap
     ethr =  1.53E-08,  avg # of iterations =  2.7

     total cpu time spent up to now is        5.8 secs

     total energy              =    -495.23098393 Ry
     Harris-Foulkes estimate   =    -495.23096278 Ry
     estimated scf accuracy    <       0.00000258 Ry

     total magnetization       =     4.61 Bohr mag/cell
     absolute magnetization    =     4.95 Bohr mag/cell

     iteration # 12     ecut=    40.00 Ry     beta= 0.30
     Davidson diagonalization with overlap
     ethr =  8.05E-09,  avg # of iterations =  1.5

     total cpu time spent up to now is        6.2 secs

     total energy              =    -495.23099592 Ry
     Harris-Foulkes estimate   =    -495.23098438 Ry
     estimated scf accuracy    <       0.00000038 Ry

     total magnetization       =     4.61 Bohr mag/cell
     absolute magnetization    =     4.95 Bohr mag/cell

     iteration # 13     ecut=    40.00 Ry     beta= 0.30
     Davidson diagonalization with overlap
     ethr =  1.19E-09,  avg # of iterations =  1.6

     total cpu time spent up to now is        6.6 secs

     total energy              =    -495.23100134 Ry
     Harris-Foulkes estimate   =    -495.23099599 Ry
     estimated scf accuracy    <       0.00000007 Ry

     total magnetization       =     4.61 Bohr mag/cell
     absolute magnetization    =     4.95 Bohr mag/cell

     iteration # 14     ecut=    40.00 Ry     beta= 0.30
     Davidson diagonalization with overlap
     ethr =  2.20E-10,  avg # of iterations =  1.7

     Magnetic moment per site:
     atom:    1    charge:   14.4176    magn:    2.3825    constr:    0.0000
     atom:    2    charge:   14.4175    magn:    2.3831    constr:    0.0000

     total cpu time spent up to now is        7.0 secs

     End of self-consistent calculation

 ------ SPIN UP ------------


          k = 0.0000 0.0000 0.0000 (   691 PWs)   bands (ev):

   -71.0579 -70.9540 -37.0527 -37.0527 -37.0527 -36.6843 -36.6843 -36.6843
     9.1956  12.7402  12.7402  15.2863  15.2863  15.2863  16.6070  16.6070
    17.3119  17.3119  17.3119  26.9289

     occupation numbers 
     1.0000   1.0000   1.0000   1.0000   1.0000   1.0000   1.0000   1.0000
     1.0000   1.0000   1.0000   1.0000   1.0000   1.0000   0.9997   0.9997
     0.8370   0.8370   0.8370   0.0000

          k = 0.0000 0.0000 0.1667 (   695 PWs)   bands (ev):

   -71.0556 -70.9565 -36.9984 -36.9984 -36.9701 -36.7921 -36.7703 -36.7703
     9.7259  12.9983  13.0346  15.1757  15.1757  15.3165  16.1118  16.4156
    17.1059  17.1059  17.2411  24.0558

     occupation numbers 
     1.0000   1.0000   1.0000   1.0000   1.0000   1.0000   1.0000   1.0000
     1.0000   1.0000   1.0000   1.0000   1.0000   1.0000   1.0000   1.0000
     0.9550   0.9550   0.8901   0.0000

          k = 0.0000 0.0000 0.3333 (   687 PWs)   bands (ev):

   -71.0335 -70.9735 -36.9337 -36.9229 -36.9229 -36.8723 -36.8222 -36.8222
    11.2130  13.4216  13.6891  15.2392  15.2392  15.4233  15.7249  16.3470
    16.3470  16.6708  16.9002  20.1664

     occupation numbers 
     1.0000   1.0000   1.0000   1.0000   1.0000   1.0000   1.0000   1.0000
     1.0000   1.0000   1.0000   1.0000   1.0000   1.0000   1.0000   1.0000
     1.0000   0.9993   0.9920   0.0000

          k = 0.0000 0.0000-0.5000 (   682 PWs)   bands (ev):

   -71.0023 -71.0014 -36.8937 -36.8928 -36.8728 -36.8728 -36.8719 -36.8719
    12.9044  12.9046  14.5333  14.5340  15.6437  15.6437  15.6445  15.6445
    16.3158  16.3167  17.6518  17.6525

     occupation numbers 
     1.0000   1.0000   1.0000   1.0000   1.0000   1.0000   1.0000   1.0000
     1.0000   1.0000   1.0000   1.0000   1.0000   1.0000   1.0000   1.0000
     1.0000   1.0000   0.4224   0.4215

          k = 0.0000 0.1667 0.1667 (   696 PWs)   bands (ev):

   -71.0485 -70.9623 -37.0457 -36.9886 -36.9096 -36.8518 -36.7842 -36.7645
    10.2443  13.1682  13.3228  14.8980  15.0719  15.7343  16.1550  16.3533
    16.4619  16.6908  17.4142  24.2089

     occupation numbers 
     1.0000   1.0000   1.0000   1.0000   1.0000   1.0000   1.0000   1.0000
     1.0000   1.0000   1.0000   1.0000   1.0000   1.0000   1.0000   1.0000
     1.0000   0.9991   0.7348   0.0000

          k = 0.0000 0.1667 0.3333 (   678 PWs)   bands (ev):

   -71.0266 -70.9758 -37.0024 -36.9063 -36.9028 -36.8480 -36.8123 -36.7637
    11.6128  13.5205  13.9291  14.7932  15.0380  15.6920  16.0017  16.1240
    16.3171  16.6517  17.3952  20.6703

     occupation numbers 
     1.0000   1.0000   1.0000   1.0000   1.0000   1.0000   1.0000   1.0000
     1.0000   1.0000   1.0000   1.0000   1.0000   1.0000   1.0000   1.0000
     1.0000   0.9995   0.7560   0.0000

          k = 0.0000 0.1667-0.5000 (   678 PWs)   bands (ev):

   -71.0006 -70.9996 -36.9689 -36.9688 -36.8591 -36.8582 -36.7993 -36.7992
    13.0347  13.0348  14.5962  14.5967  15.0355  15.0357  15.9606  15.9609
    16.9304  16.9307  17.8013  17.8018

     occupation numbers 
     1.0000   1.0000   1.0000   1.0000   1.0000   1.0000   1.0000   1.0000
     1.0000   1.0000   1.0000   1.0000   1.0000   1.0000   1.0000   1.0000
     0.9894   0.9894   0.2377   0.2371

          k = 0.0000 0.3333 0.3333 (   678 PWs)   bands (ev):

   -71.0159 -70.9821 -37.0113 -37.0106 -36.8646 -36.8576 -36.7717 -36.7572
    12.3512  13.2847  14.3541  14.8662  14.9105  15.4974  16.1686  16.2808
    16.4542  16.9413  17.7999  20.5311

     occupation numbers 
     1.0000   1.0000   1.0000   1.0000   1.0000   1.0000   1.0000   1.0000
     1.0000   1.0000   1.0000   1.0000   1.0000   1.0000   1.0000   1.0000
     1.0000   0.9883   0.2392   0.0000

          k = 0.0000 0.3333-0.5000 (   690 PWs)   bands (ev):

   -70.9998 -70.9989 -37.0580 -37.0580 -36.8694 -36.8685 -36.7725 -36.7725
    12.8498  12.8499  14.3768  14.3768  15.5660  15.5666  16.2921  16.2923
    17.4857  17.4858  17.9802  17.9804

     occupation numbers 
     1.0000   1.0000   1.0000   1.0000   1.0000   1.0000   1.0000   1.0000
     1.0000   1.0000   1.0000   1.0000   1.0000   1.0000   1.0000   1.0000
     0.6480   0.6479   0.0912   0.0911

          k = 0.0000-0.5000-0.5000 (   680 PWs)   bands (ev):

   -70.9979 -70.9969 -37.0509 -37.0509 -36.8736 -36.8727 -36.7558 -36.7558
    12.7169  12.7170  14.1131  14.1131  16.3918  16.3921  16.6654  16.6662
    17.7883  17.7883  17.8570  17.8570

     occupation numbers 
     1.0000   1.0000   1.0000   1.0000   1.0000   1.0000   1.0000   1.0000
     1.0000   1.0000   1.0000   1.0000   1.0000   1.0000   0.9994   0.9994
     0.2519   0.2519   0.1823   0.1823

          k = 0.1667 0.1667 0.1667 (   687 PWs)   bands (ev):

   -71.0422 -70.9647 -36.9911 -36.9911 -36.8955 -36.8480 -36.7841 -36.7841
    10.7452  13.4883  13.4883  14.7852  14.7852  15.7246  16.1574  16.2632
    16.2632  17.1974  17.1974  25.0681

     occupation numbers 
     1.0000   1.0000   1.0000   1.0000   1.0000   1.0000   1.0000   1.0000
     1.0000   1.0000   1.0000   1.0000   1.0000   1.0000   1.0000   1.0000
     1.0000   0.9160   0.9160   0.0000

          k = 0.1667 0.1667 0.3333 (   677 PWs)   bands (ev):

   -71.0217 -70.9782 -36.9999 -36.9344 -36.9263 -36.8148 -36.7978 -36.7716
    12.0306  13.8644  13.8689  14.6372  14.7094  15.0422  16.1545  16.4978
    16.5501  17.0560  17.2221  21.3195

     occupation numbers 
     1.0000   1.0000   1.0000   1.0000   1.0000   1.0000   1.0000   1.0000
     1.0000   1.0000   1.0000   1.0000   1.0000   1.0000   1.0000   0.9999
     0.9999   0.9692   0.9021   0.0000

          k = 0.1667 0.1667-0.5000 (   682 PWs)   bands (ev):

   -71.0000 -70.9991 -36.9974 -36.9974 -36.8681 -36.8672 -36.7911 -36.7911
    13.2721  13.2721  14.3270  14.3272  14.9775  14.9777  16.0819  16.0821
    16.8345  16.8349  18.4040  18.4042

     occupation numbers 
     1.0000   1.0000   1.0000   1.0000   1.0000   1.0000   1.0000   1.0000
     1.0000   1.0000   1.0000   1.0000   1.0000   1.0000   1.0000   1.0000
     0.9958   0.9958   0.0025   0.0025

          k = 0.1667 0.3333 0.3333 (   679 PWs)   bands (ev):

   -71.0108 -70.9858 -37.0295 -36.9828 -36.9279 -36.8222 -36.7774 -36.7755
    12.8177  13.5482  14.3280  14.4861  14.6825  14.8895  16.3696  16.4148
    16.5258  17.2393  17.9533  21.6080

     occupation numbers 
     1.0000   1.0000   1.0000   1.0000   1.0000   1.0000   1.0000   1.0000
     1.0000   1.0000   1.0000   1.0000   1.0000   1.0000   1.0000   1.0000
     0.9999   0.8913   0.1074   0.0000

          k = 0.1667 0.3333-0.5000 (   682 PWs)   bands (ev):

   -70.9981 -70.9972 -37.0266 -37.0266 -36.8877 -36.8868 -36.7712 -36.7711
    13.2115  13.2116  14.2814  14.2814  15.2649  15.2653  16.3338  16.3339
    16.8834  16.8839  19.3964  19.3965

     occupation numbers 
     1.0000   1.0000   1.0000   1.0000   1.0000   1.0000   1.0000   1.0000
     1.0000   1.0000   1.0000   1.0000   1.0000   1.0000   1.0000   1.0000
     0.9932   0.9931   0.0000   0.0000

          k = 0.1667-0.5000-0.5000 (   664 PWs)   bands (ev):

   -70.9950 -70.9941 -37.0188 -37.0188 -36.8500 -36.8491 -36.7562 -36.7562
    13.1091  13.1093  14.1786  14.1786  16.1533  16.1533  16.4726  16.4730
    16.7244  16.7252  20.0326  20.0326

     occupation numbers 
     1.0000   1.0000   1.0000   1.0000   1.0000   1.0000   1.0000   1.0000
     1.0000   1.0000   1.0000   1.0000   1.0000   1.0000   0.9999   0.9999
     0.9987   0.9987   0.0000   0.0000

          k = 0.3333 0.3333 0.3333 (   675 PWs)   bands (ev):

   -71.0045 -70.9876 -37.0088 -36.9507 -36.9507 -36.8320 -36.8320 -36.7695
    13.8163  13.8878  14.2217  14.2217  14.4939  14.4939  16.4947  16.4947
    16.7498  16.7498  19.3031  23.9324

     occupation numbers 
     1.0000   1.0000   1.0000   1.0000   1.0000   1.0000   1.0000   1.0000
     1.0000   1.0000   1.0000   1.0000   1.0000   1.0000   0.9999   0.9999
     0.9983   0.9983   0.0000   0.0000

          k = 0.3333 0.3333-0.5000 (   670 PWs)   bands (ev):

   -70.9954 -70.9944 -36.9850 -36.9849 -36.8933 -36.8924 -36.7971 -36.7971
    13.7891  13.7894  14.2578  14.2582  14.7596  14.7601  16.5466  16.5470
    16.7008  16.7015  21.2670  21.2670

     occupation numbers 
     1.0000   1.0000   1.0000   1.0000   1.0000   1.0000   1.0000   1.0000
     1.0000   1.0000   1.0000   1.0000   1.0000   1.0000   0.9999   0.9999
     0.9990   0.9990   0.0000   0.0000

          k = 0.3333-0.5000-0.5000 (   676 PWs)   bands (ev):

   -70.9952 -70.9942 -36.9922 -36.9922 -36.8941 -36.8932 -36.8306 -36.8306
    13.8477  13.8481  14.0836  14.0836  14.9417  14.9417  16.6088  16.6095
    16.6609  16.6617  22.6450  22.6450

     occupation numbers 
     1.0000   1.0000   1.0000   1.0000   1.0000   1.0000   1.0000   1.0000
     1.0000   1.0000   1.0000   1.0000   1.0000   1.0000   0.9997   0.9997
     0.9994   0.9994   0.0000   0.0000

          k =-0.5000-0.5000-0.5000 (   672 PWs)   bands (ev):

   -70.9943 -70.9934 -36.9086 -36.9086 -36.9086 -36.9077 -36.9077 -36.9077
    14.2948  14.2948  14.2948  14.2955  14.2955  14.2955  16.6646  16.6646
    16.6654  16.6654  25.6903  25.6903

     occupation numbers 
     1.0000   1.0000   1.0000   1.0000   1.0000   1.0000   1.0000   1.0000
     1.0000   1.0000   1.0000   1.0000   1.0000   1.0000   0.9994   0.9994
     0.9994   0.9994   0.0000   0.0000

 ------ SPIN DOWN ----------


          k = 0.0000 0.0000 0.0000 (   691 PWs)   bands (ev):

   -68.0615 -67.9422 -34.1566 -34.1566 -34.1566 -33.7600 -33.7600 -33.7600
     9.2696  14.6571  14.6571  17.5070  17.5070  17.5070  19.5457  19.5457
    19.8979  19.8979  19.8979  27.1757

     occupation numbers 
     1.0000   1.0000   1.0000   1.0000   1.0000   1.0000   1.0000   1.0000
     1.0000   1.0000   1.0000   0.6203   0.6203   0.6203   0.0000   0.0000
     0.0000   0.0000   0.0000   0.0000

          k = 0.0000 0.0000 0.1667 (   695 PWs)   bands (ev):

   -68.0561 -67.9463 -34.1014 -34.1014 -34.0757 -33.8706 -33.8458 -33.8458
     9.8094  14.8655  14.9623  17.3802  17.3802  17.5656  18.9756  19.3925
    19.5237  19.5237  19.7966  24.7591

     occupation numbers 
     1.0000   1.0000   1.0000   1.0000   1.0000   1.0000   1.0000   1.0000
     1.0000   1.0000   1.0000   0.7720   0.7720   0.5411   0.0000   0.0000
     0.0000   0.0000   0.0000   0.0000

          k = 0.0000 0.0000 0.3333 (   687 PWs)   bands (ev):

   -68.0313 -67.9660 -34.0401 -34.0200 -34.0200 -33.9613 -33.9028 -33.9028
    11.3526  14.8048  15.7997  17.4007  17.4007  18.0321  18.0639  18.5661
    18.5661  19.3823  19.6471  21.6484

     occupation numbers 
     1.0000   1.0000   1.0000   1.0000   1.0000   1.0000   1.0000   1.0000
     1.0000   1.0000   1.0000   0.7500   0.7500   0.0651   0.0523   0.0004
     0.0004   0.0000   0.0000   0.0000

          k = 0.0000 0.0000-0.5000 (   682 PWs)   bands (ev):

   -67.9972 -67.9968 -33.9940 -33.9936 -33.9614 -33.9614 -33.9610 -33.9610
    13.4110  13.4110  16.8929  16.8932  17.7903  17.7903  17.7906  17.7906
    18.7068  18.7071  20.2173  20.2176

     occupation numbers 
     1.0000   1.0000   1.0000   1.0000   1.0000   1.0000   1.0000   1.0000
     1.0000   1.0000   0.9925   0.9925   0.2497   0.2497   0.2494   0.2494
     0.0001   0.0001   0.0000   0.0000

          k = 0.0000 0.1667 0.1667 (   696 PWs)   bands (ev):

   -68.0480 -67.9529 -34.1542 -34.0895 -34.0083 -33.9376 -33.8612 -33.8382
    10.3408  15.0884  15.1646  17.0560  17.2336  18.0319  18.7479  18.9880
    19.0119  19.3101  20.0092  25.0264

     occupation numbers 
     1.0000   1.0000   1.0000   1.0000   1.0000   1.0000   1.0000   1.0000
     1.0000   1.0000   1.0000   0.9692   0.8949   0.0652   0.0000   0.0000
     0.0000   0.0000   0.0000   0.0000

          k = 0.0000 0.1667 0.3333 (   678 PWs)   bands (ev):

   -68.0244 -67.9687 -34.1139 -34.0048 -33.9992 -33.9399 -33.8941 -33.8406
    11.8069  15.0325  15.8379  16.8970  17.1010  17.8333  18.4071  18.6570
    18.6908  19.6120  19.9452  22.1197

     occupation numbers 
     1.0000   1.0000   1.0000   1.0000   1.0000   1.0000   1.0000   1.0000
     1.0000   1.0000   1.0000   0.9922   0.9566   0.2048   0.0025   0.0001
     0.0001   0.0000   0.0000   0.0000

          k = 0.0000 0.1667-0.5000 (   678 PWs)   bands (ev):

   -67.9956 -67.9952 -34.0771 -34.0770 -33.9476 -33.9473 -33.8829 -33.8828
    13.7006  13.7006  16.6364  16.6365  17.1246  17.1247  18.3513  18.3514
    19.3939  19.3940  20.2543  20.2546

     occupation numbers 
     1.0000   1.0000   1.0000   1.0000   1.0000   1.0000   1.0000   1.0000
     1.0000   1.0000   0.9996   0.9996   0.9486   0.9485   0.0044   0.0044
     0.0000   0.0000   0.0000   0.0000

          k = 0.0000 0.3333 0.3333 (   678 PWs)   bands (ev):

   -68.0119 -67.9765 -34.1310 -34.1210 -33.9580 -33.9413 -33.8453 -33.8411
    12.9071  14.8326  16.3916  16.4934  16.9493  16.9525  18.6613  19.0296
    19.4277  19.4477  20.4063  21.8703

     occupation numbers 
     1.0000   1.0000   1.0000   1.0000   1.0000   1.0000   1.0000   1.0000
     1.0000   1.0000   1.0000   0.9999   0.9874   0.9870   0.0001   0.0000
     0.0000   0.0000   0.0000   0.0000

          k = 0.0000 0.3333-0.5000 (   690 PWs)   bands (ev):

   -67.9943 -67.9939 -34.1763 -34.1763 -33.9570 -33.9566 -33.8490 -33.8490
    14.0344  14.0345  16.3886  16.3886  17.0302  17.0303  18.9511  18.9512
    20.0623  20.0623  20.0872  20.0874

     occupation numbers 
     1.0000   1.0000   1.0000   1.0000   1.0000   1.0000   1.0000   1.0000
     1.0000   1.0000   1.0000   1.0000   0.9749   0.9749   0.0000   0.0000
     0.0000   0.0000   0.0000   0.0000

          k = 0.0000-0.5000-0.5000 (   680 PWs)   bands (ev):

   -67.9925 -67.9921 -34.1746 -34.1746 -33.9609 -33.9606 -33.8295 -33.8295
    14.0796  14.0797  16.0978  16.0978  17.8918  17.8918  19.1797  19.1799
    19.6866  19.6869  20.4069  20.4069

     occupation numbers 
     1.0000   1.0000   1.0000   1.0000   1.0000   1.0000   1.0000   1.0000
     1.0000   1.0000   1.0000   1.0000   0.1521   0.1521   0.0000   0.0000
     0.0000   0.0000   0.0000   0.0000

          k = 0.1667 0.1667 0.1667 (   687 PWs)   bands (ev):

   -68.0409 -67.9563 -34.0985 -34.0985 -33.9868 -33.9409 -33.8598 -33.8598
    10.8560  15.3566  15.3566  16.9089  16.9089  17.7842  18.4766  19.1697
    19.1697  19.6670  19.6670  26.0107

     occupation numbers 
     1.0000   1.0000   1.0000   1.0000   1.0000   1.0000   1.0000   1.0000
     1.0000   1.0000   1.0000   0.9913   0.9913   0.2564   0.0011   0.0000
     0.0000   0.0000   0.0000   0.0000

          k = 0.1667 0.1667 0.3333 (   677 PWs)   bands (ev):

   -68.0192 -67.9714 -34.1116 -34.0354 -34.0295 -33.9009 -33.8806 -33.8480
    12.2613  15.3243  15.8084  16.6826  16.7203  17.0626  18.8991  18.9048
    19.2774  19.6293  19.7593  22.7941

     occupation numbers 
     1.0000   1.0000   1.0000   1.0000   1.0000   1.0000   1.0000   1.0000
     1.0000   1.0000   1.0000   0.9992   0.9988   0.9675   0.0000   0.0000
     0.0000   0.0000   0.0000   0.0000

          k = 0.1667 0.1667-0.5000 (   682 PWs)   bands (ev):

   -67.9948 -67.9944 -34.1074 -34.1074 -33.9592 -33.9588 -33.8716 -33.8716
    14.0223  14.0223  16.3241  16.3241  16.8935  16.8935  18.6164  18.6164
    19.5352  19.5354  20.6187  20.6188

     occupation numbers 
     1.0000   1.0000   1.0000   1.0000   1.0000   1.0000   1.0000   1.0000
     1.0000   1.0000   1.0000   1.0000   0.9925   0.9925   0.0002   0.0002
     0.0000   0.0000   0.0000   0.0000

          k = 0.1667 0.3333 0.3333 (   679 PWs)   bands (ev):

   -68.0070 -67.9795 -34.1449 -34.0945 -34.0258 -33.9074 -33.8563 -33.8539
    13.3729  15.1402  16.3041  16.3045  16.4366  16.5403  18.9970  19.2015
    19.5102  19.8506  20.2225  22.9596

     occupation numbers 
     1.0000   1.0000   1.0000   1.0000   1.0000   1.0000   1.0000   1.0000
     1.0000   1.0000   1.0000   1.0000   1.0000   0.9999   0.0000   0.0000
     0.0000   0.0000   0.0000   0.0000

          k = 0.1667 0.3333-0.5000 (   682 PWs)   bands (ev):

   -67.9927 -67.9923 -34.1431 -34.1431 -33.9782 -33.9779 -33.8490 -33.8490
    14.4406  14.4406  16.2044  16.2045  16.6750  16.6751  19.0767  19.0768
    19.7181  19.7184  21.2881  21.2881

     occupation numbers 
     1.0000   1.0000   1.0000   1.0000   1.0000   1.0000   1.0000   1.0000
     1.0000   1.0000   1.0000   1.0000   0.9993   0.9993   0.0000   0.0000
     0.0000   0.0000   0.0000   0.0000

          k = 0.1667-0.5000-0.5000 (   664 PWs)   bands (ev):

   -67.9900 -67.9897 -34.1392 -34.1392 -33.9406 -33.9403 -33.8340 -33.8340
    14.5063  14.5063  16.0909  16.0909  17.1946  17.1946  19.3075  19.3077
    19.7461  19.7464  21.6376  21.6376

     occupation numbers 
     1.0000   1.0000   1.0000   1.0000   1.0000   1.0000   1.0000   1.0000
     1.0000   1.0000   1.0000   1.0000   0.9175   0.9175   0.0000   0.0000
     0.0000   0.0000   0.0000   0.0000

          k = 0.3333 0.3333 0.3333 (   675 PWs)   bands (ev):

   -67.9998 -67.9819 -34.1209 -34.0582 -34.0582 -33.9161 -33.9161 -33.8494
    14.4523  15.6246  16.0611  16.0611  16.0941  16.0941  19.4526  19.4526
    19.5092  19.5092  21.3306  25.1597

     occupation numbers 
     1.0000   1.0000   1.0000   1.0000   1.0000   1.0000   1.0000   1.0000
     1.0000   1.0000   1.0000   1.0000   1.0000   1.0000   0.0000   0.0000
     0.0000   0.0000   0.0000   0.0000

          k = 0.3333 0.3333-0.5000 (   670 PWs)   bands (ev):

   -67.9899 -67.9895 -34.0976 -34.0976 -33.9883 -33.9879 -33.8791 -33.8791
    15.2429  15.2430  15.9516  15.9518  16.2019  16.2020  19.4343  19.4345
    19.6638  19.6640  22.8750  22.8750

     occupation numbers 
     1.0000   1.0000   1.0000   1.0000   1.0000   1.0000   1.0000   1.0000
     1.0000   1.0000   1.0000   1.0000   1.0000   1.0000   0.0000   0.0000
     0.0000   0.0000   0.0000   0.0000

          k = 0.3333-0.5000-0.5000 (   676 PWs)   bands (ev):

   -67.9895 -67.9891 -34.1024 -34.1024 -33.9887 -33.9884 -33.9164 -33.9164
    15.3608  15.3609  15.8485  15.8485  16.3077  16.3077  19.5608  19.5611
    19.6923  19.6926  23.9088  23.9088

     occupation numbers 
     1.0000   1.0000   1.0000   1.0000   1.0000   1.0000   1.0000   1.0000
     1.0000   1.0000   1.0000   1.0000   1.0000   1.0000   0.0000   0.0000
     0.0000   0.0000   0.0000   0.0000

          k =-0.5000-0.5000-0.5000 (   672 PWs)   bands (ev):

   -67.9885 -67.9881 -34.0060 -34.0060 -34.0060 -34.0056 -34.0056 -34.0056
    15.8705  15.8705  15.8705  15.8707  15.8707  15.8707  19.6996  19.6996
    19.7000  19.7000  26.7082  26.7082

     occupation numbers 
     1.0000   1.0000   1.0000   1.0000   1.0000   1.0000   1.0000   1.0000
     1.0000   1.0000   1.0000   1.0000   1.0000   1.0000   0.0000   0.0000
     0.0000   0.0000   0.0000   0.0000

     the Fermi energy is    17.5953 ev

!    total energy              =    -495.23100663 Ry
     Harris-Foulkes estimate   =    -495.23100136 Ry
     estimated scf accuracy    <          6.9E-09 Ry

     The total energy is the sum of the following terms:

     one-electron contribution =    -228.32277680 Ry
     hartree contribution      =     132.12059791 Ry
     xc contribution           =     -55.46088061 Ry
     ewald contribution        =    -343.55724456 Ry
     smearing contrib. (-TS)   =      -0.01070257 Ry

     total magnetization       =     4.61 Bohr mag/cell
     absolute magnetization    =     4.95 Bohr mag/cell

     convergence has been achieved in  14 iterations

     Writing output data file fe-fm.save/

     init_run     :      0.23s CPU      0.24s WALL (       1 calls)
     electrons    :      6.15s CPU      6.29s WALL (       1 calls)

     Called by init_run:
     wfcinit      :      0.12s CPU      0.13s WALL (       1 calls)
     wfcinit:atom :      0.00s CPU      0.00s WALL (      40 calls)
     wfcinit:wfcr :      0.11s CPU      0.12s WALL (      40 calls)
     potinit      :      0.01s CPU      0.01s WALL (       1 calls)
     hinit0       :      0.07s CPU      0.07s WALL (       1 calls)

     Called by electrons:
     c_bands      :      4.93s CPU      5.05s WALL (      14 calls)
     sum_band     :      0.90s CPU      0.92s WALL (      14 calls)
     v_of_rho     :      0.12s CPU      0.12s WALL (      15 calls)
     v_h          :      0.00s CPU      0.00s WALL (      15 calls)
     v_xc         :      0.12s CPU      0.12s WALL (      15 calls)
     newd         :      0.19s CPU      0.20s WALL (      15 calls)
     mix_rho      :      0.01s CPU      0.01s WALL (      14 calls)

     Called by c_bands:
     init_us_2    :      0.06s CPU      0.06s WALL (    1160 calls)
     cegterg      :      4.72s CPU      4.84s WALL (     560 calls)

     Called by sum_band:
     sum_band:bec :      0.01s CPU      0.01s WALL (     560 calls)
     addusdens    :      0.23s CPU      0.24s WALL (      14 calls)

     Called by *egterg:
     h_psi        :      2.67s CPU      2.74s WALL (    1737 calls)
     s_psi        :      0.26s CPU      0.27s WALL (    1737 calls)
     g_psi        :      0.01s CPU      0.01s WALL (    1137 calls)
     cdiaghg      :      0.98s CPU      1.00s WALL (    1697 calls)
     cegterg:over :      0.39s CPU      0.40s WALL (    1137 calls)
     cegterg:upda :      0.17s CPU      0.18s WALL (    1137 calls)
     cegterg:last :      0.12s CPU      0.12s WALL (     560 calls)

     Called by h_psi:
     h_psi:pot    :      2.66s CPU      2.73s WALL (    1737 calls)
     h_psi:calbec :      0.28s CPU      0.29s WALL (    1737 calls)
     vloc_psi     :      2.12s CPU      2.18s WALL (    1737 calls)
     add_vuspsi   :      0.26s CPU      0.27s WALL (    1737 calls)

     General routines
     calbec       :      0.39s CPU      0.40s WALL (    2297 calls)
     fft          :      0.05s CPU      0.05s WALL (     369 calls)
     ffts         :      0.00s CPU      0.01s WALL (      58 calls)
     fftw         :      2.31s CPU      2.37s WALL (   64428 calls)
     interpolate  :      0.01s CPU      0.01s WALL (      30 calls)

     Parallel routines
     fft_scatt_xy :      0.27s CPU      0.28s WALL (   64855 calls)
     fft_scatt_yz :      0.72s CPU      0.74s WALL (   64855 calls)

     PWSCF        :      6.91s CPU      7.07s WALL


   This run was terminated on:  19:33:43  17Oct2020            

=------------------------------------------------------------------------------=
   JOB DONE.
=------------------------------------------------------------------------------=
