
     Program PWSCF v.6.4.1 starts on 10Nov2020 at  9:55:30 

     This program is part of the open-source Quantum ESPRESSO suite
     for quantum simulation of materials; please cite
         "P. Giannozzi et al., J. Phys.:Condens. Matter 21 395502 (2009);
         "P. Giannozzi et al., J. Phys.:Condens. Matter 29 465901 (2017);
          URL http://www.quantum-espresso.org", 
     in publications or presentations arising from this work. More details at
     http://www.quantum-espresso.org/quote

     Parallel version (MPI), running on     1 processors

     MPI processes distributed on     1 nodes
     Reading input from co.pwi
Warning: card &IONS ignored
Warning: card / ignored
Warning: card &CELL ignored
Warning: card / ignored

     Current dimensions of program PWSCF are:
     Max number of different atomic species (ntypx) = 10
     Max number of k-points (npk) =  40000
     Max angular momentum in pseudopotentials (lmaxx) =  3
     Message from routine input:
     WARNING: "startingwfc" set to atomic+random may spoil restart

     Atomic positions and unit cell read from directory:
     ./co.save/


     Subspace diagonalization in iterative solution of the eigenvalue problem:
     a serial algorithm will be used

     Message from routine setup:
     DEPRECATED: symmetry with ibrav=0, use correct ibrav instead

     G-vector sticks info
     --------------------
     sticks:   dense  smooth     PW     G-vecs:    dense   smooth      PW
     Sum        3397    3397    853               167029   167029   20905



     bravais-lattice index     =            0
     lattice parameter (alat)  =      18.8973  a.u.
     unit-cell volume          =    7524.6225 (a.u.)^3
     number of atoms/cell      =            2
     number of atomic types    =            2
     number of electrons       =        10.00
     number of Kohn-Sham states=            5
     kinetic-energy cutoff     =      30.0000  Ry
     charge density cutoff     =     120.0000  Ry
     Exchange-correlation      = PBE ( 1  4  3  4 0 0)

     celldm(1)=  18.897261  celldm(2)=   0.000000  celldm(3)=   0.000000
     celldm(4)=   0.000000  celldm(5)=   0.000000  celldm(6)=   0.000000

     crystal axes: (cart. coord. in units of alat)
               a(1) = (   1.000000   0.000000   0.000000 )  
               a(2) = (   0.000000   1.000000   0.000000 )  
               a(3) = (   0.000000   0.000000   1.115034 )  

     reciprocal axes: (cart. coord. in units 2 pi/alat)
               b(1) = (  1.000000  0.000000  0.000000 )  
               b(2) = (  0.000000  1.000000  0.000000 )  
               b(3) = (  0.000000  0.000000  0.896834 )  


     PseudoPot. # 1 for O  read from file:
     /home/xing/datas/pseudo/O.pbe-n-rrkjus_psl.1.0.0.UPF
     MD5 check sum: 91400c9766925bcf19f520983a725ff0
     Pseudo is Ultrasoft + core correction, Zval =  6.0
     Generated using "atomic" code by A. Dal Corso v.6.3MaX
     Using radial grid of 1095 points,  4 beta functions with: 
                l(1) =   0
                l(2) =   0
                l(3) =   1
                l(4) =   1
     Q(r) pseudized with 0 coefficients 


     PseudoPot. # 2 for C  read from file:
     /home/xing/datas/pseudo/C.pbe-n-rrkjus_psl.1.0.0.UPF
     MD5 check sum: 1fdd950c42eb37d8afe3dd2f8d12311e
     Pseudo is Ultrasoft + core correction, Zval =  4.0
     Generated using "atomic" code by A. Dal Corso v.6.3MaX
     Using radial grid of 1073 points,  4 beta functions with: 
                l(1) =   0
                l(2) =   0
                l(3) =   1
                l(4) =   1
     Q(r) pseudized with 0 coefficients 


     atomic species   valence    mass     pseudopotential
        O              6.00    15.99900     O ( 1.00)
        C              4.00    12.01100     C ( 1.00)

      8 Sym. Ops. (no inversion) found


                                    s                        frac. trans.

      isym =  1     identity                                     

 cryst.   s( 1) = (     1          0          0      )
                  (     0          1          0      )
                  (     0          0          1      )

 cart.    s( 1) = (  1.0000000  0.0000000  0.0000000 )
                  (  0.0000000  1.0000000  0.0000000 )
                  (  0.0000000  0.0000000  1.0000000 )


      isym =  2     180 deg rotation - cart. axis [0,0,1]        

 cryst.   s( 2) = (    -1          0          0      )
                  (     0         -1          0      )
                  (     0          0          1      )

 cart.    s( 2) = ( -1.0000000  0.0000000  0.0000000 )
                  (  0.0000000 -1.0000000  0.0000000 )
                  (  0.0000000  0.0000000  1.0000000 )


      isym =  3      90 deg rotation - cart. axis [0,0,-1]       

 cryst.   s( 3) = (     0         -1          0      )
                  (     1          0          0      )
                  (     0          0          1      )

 cart.    s( 3) = (  0.0000000  1.0000000  0.0000000 )
                  ( -1.0000000  0.0000000  0.0000000 )
                  (  0.0000000  0.0000000  1.0000000 )


      isym =  4      90 deg rotation - cart. axis [0,0,1]        

 cryst.   s( 4) = (     0          1          0      )
                  (    -1          0          0      )
                  (     0          0          1      )

 cart.    s( 4) = (  0.0000000 -1.0000000  0.0000000 )
                  (  1.0000000  0.0000000  0.0000000 )
                  (  0.0000000  0.0000000  1.0000000 )


      isym =  5     inv. 180 deg rotation - cart. axis [0,1,0]   

 cryst.   s( 5) = (     1          0          0      )
                  (     0         -1          0      )
                  (     0          0          1      )

 cart.    s( 5) = (  1.0000000  0.0000000  0.0000000 )
                  (  0.0000000 -1.0000000  0.0000000 )
                  (  0.0000000  0.0000000  1.0000000 )


      isym =  6     inv. 180 deg rotation - cart. axis [1,0,0]   

 cryst.   s( 6) = (    -1          0          0      )
                  (     0          1          0      )
                  (     0          0          1      )

 cart.    s( 6) = ( -1.0000000  0.0000000  0.0000000 )
                  (  0.0000000  1.0000000  0.0000000 )
                  (  0.0000000  0.0000000  1.0000000 )


      isym =  7     inv. 180 deg rotation - cart. axis [1,1,0]   

 cryst.   s( 7) = (     0         -1          0      )
                  (    -1          0          0      )
                  (     0          0          1      )

 cart.    s( 7) = (  0.0000000 -1.0000000  0.0000000 )
                  ( -1.0000000  0.0000000  0.0000000 )
                  (  0.0000000  0.0000000  1.0000000 )


      isym =  8     inv. 180 deg rotation - cart. axis [1,-1,0]  

 cryst.   s( 8) = (     0          1          0      )
                  (     1          0          0      )
                  (     0          0          1      )

 cart.    s( 8) = (  0.0000000  1.0000000  0.0000000 )
                  (  1.0000000  0.0000000  0.0000000 )
                  (  0.0000000  0.0000000  1.0000000 )


   Cartesian axes

     site n.     atom                  positions (alat units)
         1           O   tau(   1) = (   0.5000000   0.5000000   0.6150340  )
         2           C   tau(   2) = (   0.5000000   0.5000000   0.5000000  )

   Crystallographic axes

     site n.     atom                  positions (cryst. coord.)
         1           O   tau(   1) = (  0.5000000  0.5000000  0.5515832  )
         2           C   tau(   2) = (  0.5000000  0.5000000  0.4484168  )

     number of k points=     1
                       cart. coord. in units 2pi/alat
        k(    1) = (   0.0000000   0.0000000   0.0000000), wk =   2.0000000

                       cryst. coord.
        k(    1) = (   0.0000000   0.0000000   0.0000000), wk =   2.0000000

     Dense  grid:   167029 G-vectors     FFT dimensions: (  72,  72,  75)

     Dynamical RAM for                 wfc:       1.59 MB

     Dynamical RAM for     wfc (w. buffer):       1.59 MB

     Dynamical RAM for           str. fact:       5.10 MB

     Dynamical RAM for           local pot:       0.00 MB

     Dynamical RAM for          nlocal pot:       5.10 MB

     Dynamical RAM for                qrad:       1.51 MB

     Dynamical RAM for          rho,v,vnew:      16.54 MB

     Dynamical RAM for           G-vectors:      10.83 MB

     Dynamical RAM for          h,s,v(r/c):       0.02 MB

     Dynamical RAM for          <psi|beta>:       0.00 MB

     Dynamical RAM for                 psi:       6.37 MB

     Dynamical RAM for                hpsi:       6.37 MB

     Dynamical RAM for                spsi:       6.37 MB

     Dynamical RAM for      wfcinit/wfcrot:       5.10 MB

     Dynamical RAM for           addusdens:     112.14 MB

     Estimated static dynamical RAM per process >      63.15 MB

     Estimated max dynamical RAM per process >     175.29 MB

     Check: negative core charge=   -0.000035

     The potential is recalculated from file :
     ./co.save/charge-density


     negative rho (up, down):  1.079E-01 0.000E+00
     Starting wfcs are    8 randomized atomic wfcs

     Band Structure Calculation
     Davidson diagonalization with overlap

     Computing kpt #:     1
     total cpu time spent up to now is        5.9 secs

     ethr =  1.00E-08,  avg # of iterations =  9.0

     total cpu time spent up to now is        5.9 secs

     End of band structure calculation

          k = 0.0000 0.0000 0.0000 ( 20905 PWs)   bands (ev):

   -29.2670 -14.0553 -11.5389 -11.5389  -8.8999

     occupation numbers 
     1.0000   1.0000   1.0000   1.0000   1.0000

     highest occupied level (ev):    -8.8999

     Writing output data file co.save/

     init_run     :      2.84s CPU      3.04s WALL (       1 calls)
     electrons    :      1.71s CPU      1.73s WALL (       1 calls)

     Called by init_run:
     wfcinit      :      0.00s CPU      0.00s WALL (       1 calls)
     wfcinit:atom :      0.01s CPU      0.01s WALL (       1 calls)
     wfcinit:wfcr :      0.24s CPU      0.24s WALL (       1 calls)
     potinit      :      0.38s CPU      0.41s WALL (       1 calls)
     hinit0       :      2.05s CPU      2.06s WALL (       1 calls)

     Called by electrons:
     c_bands      :      1.71s CPU      1.73s WALL (       1 calls)
     v_of_rho     :      0.36s CPU      0.39s WALL (       1 calls)
     v_h          :      0.02s CPU      0.02s WALL (       1 calls)
     v_xc         :      0.35s CPU      0.37s WALL (       1 calls)
     newd         :      0.25s CPU      0.39s WALL (       1 calls)

     Called by c_bands:
     init_us_2    :      0.01s CPU      0.01s WALL (       1 calls)
     cegterg      :      1.41s CPU      1.43s WALL (       1 calls)

     Called by sum_band:

     Called by *egterg:
     h_psi        :      1.32s CPU      1.32s WALL (      11 calls)
     s_psi        :      0.06s CPU      0.07s WALL (      11 calls)
     g_psi        :      0.01s CPU      0.01s WALL (       9 calls)
     cdiaghg      :      0.00s CPU      0.00s WALL (      10 calls)
     cegterg:over :      0.09s CPU      0.09s WALL (       9 calls)
     cegterg:upda :      0.07s CPU      0.07s WALL (       9 calls)
     cegterg:last :      0.06s CPU      0.06s WALL (       3 calls)

     Called by h_psi:
     h_psi:pot    :      1.31s CPU      1.32s WALL (      11 calls)
     h_psi:calbec :      0.07s CPU      0.07s WALL (      11 calls)
     vloc_psi     :      1.17s CPU      1.17s WALL (      11 calls)
     add_vuspsi   :      0.07s CPU      0.07s WALL (      11 calls)

     General routines
     calbec       :      0.07s CPU      0.07s WALL (      11 calls)
     fft          :      0.18s CPU      0.18s WALL (      12 calls)
     fftw         :      1.04s CPU      1.04s WALL (     108 calls)
     davcio       :      0.00s CPU      0.00s WALL (       2 calls)

     Parallel routines

     PWSCF        :      5.71s CPU      5.95s WALL


   This run was terminated on:   9:55:36  10Nov2020            

=------------------------------------------------------------------------------=
   JOB DONE.
=------------------------------------------------------------------------------=
