
     Program PWSCF v.6.4.1 starts on 25Jun2021 at  6:29: 8 

     This program is part of the open-source Quantum ESPRESSO suite
     for quantum simulation of materials; please cite
         "P. Giannozzi et al., J. Phys.:Condens. Matter 21 395502 (2009);
         "P. Giannozzi et al., J. Phys.:Condens. Matter 29 465901 (2017);
          URL http://www.quantum-espresso.org", 
     in publications or presentations arising from this work. More details at
     http://www.quantum-espresso.org/quote

     Parallel version (MPI), running on     1 processors

     MPI processes distributed on     1 nodes
     Reading input from co.pwi
Warning: card &IONS ignored
Warning: card / ignored
Warning: card &CELL ignored
Warning: card / ignored

     Current dimensions of program PWSCF are:
     Max number of different atomic species (ntypx) = 10
     Max number of k-points (npk) =  40000
     Max angular momentum in pseudopotentials (lmaxx) =  3

     Atomic positions and unit cell read from directory:
     ../co.save/


     Subspace diagonalization in iterative solution of the eigenvalue problem:
     a serial algorithm will be used

     Message from routine setup:
     DEPRECATED: symmetry with ibrav=0, use correct ibrav instead

     G-vector sticks info
     --------------------
     sticks:   dense  smooth     PW     G-vecs:    dense   smooth      PW
     Sum        3397    3397    917               167029   167029   23065



     bravais-lattice index     =            0
     lattice parameter (alat)  =      18.8973  a.u.
     unit-cell volume          =    7524.6225 (a.u.)^3
     number of atoms/cell      =            2
     number of atomic types    =            2
     number of electrons       =        10.00
     number of Kohn-Sham states=            9
     kinetic-energy cutoff     =      30.0000  Ry
     charge density cutoff     =     120.0000  Ry
     Exchange-correlation      = PBE ( 1  4  3  4 0 0)

     celldm(1)=  18.897261  celldm(2)=   0.000000  celldm(3)=   0.000000
     celldm(4)=   0.000000  celldm(5)=   0.000000  celldm(6)=   0.000000

     crystal axes: (cart. coord. in units of alat)
               a(1) = (   1.000000   0.000000   0.000000 )  
               a(2) = (   0.000000   1.000000   0.000000 )  
               a(3) = (   0.000000   0.000000   1.115034 )  

     reciprocal axes: (cart. coord. in units 2 pi/alat)
               b(1) = (  1.000000  0.000000  0.000000 )  
               b(2) = (  0.000000  1.000000  0.000000 )  
               b(3) = (  0.000000  0.000000  0.896834 )  


     PseudoPot. # 1 for O  read from file:
     /home/xing/datas/pseudo/O.pbe-n-rrkjus_psl.1.0.0.UPF
     MD5 check sum: 91400c9766925bcf19f520983a725ff0
     Pseudo is Ultrasoft + core correction, Zval =  6.0
     Generated using "atomic" code by A. Dal Corso v.6.3MaX
     Using radial grid of 1095 points,  4 beta functions with: 
                l(1) =   0
                l(2) =   0
                l(3) =   1
                l(4) =   1
     Q(r) pseudized with 0 coefficients 


     PseudoPot. # 2 for C  read from file:
     /home/xing/datas/pseudo/C.pbe-n-rrkjus_psl.1.0.0.UPF
     MD5 check sum: 1fdd950c42eb37d8afe3dd2f8d12311e
     Pseudo is Ultrasoft + core correction, Zval =  4.0
     Generated using "atomic" code by A. Dal Corso v.6.3MaX
     Using radial grid of 1073 points,  4 beta functions with: 
                l(1) =   0
                l(2) =   0
                l(3) =   1
                l(4) =   1
     Q(r) pseudized with 0 coefficients 


     atomic species   valence    mass     pseudopotential
        O              6.00    15.99900     O ( 1.00)
        C              4.00    12.01100     C ( 1.00)

      8 Sym. Ops. (no inversion) found


                                    s                        frac. trans.

      isym =  1     identity                                     

 cryst.   s( 1) = (     1          0          0      )
                  (     0          1          0      )
                  (     0          0          1      )

 cart.    s( 1) = (  1.0000000  0.0000000  0.0000000 )
                  (  0.0000000  1.0000000  0.0000000 )
                  (  0.0000000  0.0000000  1.0000000 )


      isym =  2     180 deg rotation - cart. axis [0,0,1]        

 cryst.   s( 2) = (    -1          0          0      )
                  (     0         -1          0      )
                  (     0          0          1      )

 cart.    s( 2) = ( -1.0000000  0.0000000  0.0000000 )
                  (  0.0000000 -1.0000000  0.0000000 )
                  (  0.0000000  0.0000000  1.0000000 )


      isym =  3      90 deg rotation - cart. axis [0,0,-1]       

 cryst.   s( 3) = (     0         -1          0      )
                  (     1          0          0      )
                  (     0          0          1      )

 cart.    s( 3) = (  0.0000000  1.0000000  0.0000000 )
                  ( -1.0000000  0.0000000  0.0000000 )
                  (  0.0000000  0.0000000  1.0000000 )


      isym =  4      90 deg rotation - cart. axis [0,0,1]        

 cryst.   s( 4) = (     0          1          0      )
                  (    -1          0          0      )
                  (     0          0          1      )

 cart.    s( 4) = (  0.0000000 -1.0000000  0.0000000 )
                  (  1.0000000  0.0000000  0.0000000 )
                  (  0.0000000  0.0000000  1.0000000 )


      isym =  5     inv. 180 deg rotation - cart. axis [0,1,0]   

 cryst.   s( 5) = (     1          0          0      )
                  (     0         -1          0      )
                  (     0          0          1      )

 cart.    s( 5) = (  1.0000000  0.0000000  0.0000000 )
                  (  0.0000000 -1.0000000  0.0000000 )
                  (  0.0000000  0.0000000  1.0000000 )


      isym =  6     inv. 180 deg rotation - cart. axis [1,0,0]   

 cryst.   s( 6) = (    -1          0          0      )
                  (     0          1          0      )
                  (     0          0          1      )

 cart.    s( 6) = ( -1.0000000  0.0000000  0.0000000 )
                  (  0.0000000  1.0000000  0.0000000 )
                  (  0.0000000  0.0000000  1.0000000 )


      isym =  7     inv. 180 deg rotation - cart. axis [1,1,0]   

 cryst.   s( 7) = (     0         -1          0      )
                  (    -1          0          0      )
                  (     0          0          1      )

 cart.    s( 7) = (  0.0000000 -1.0000000  0.0000000 )
                  ( -1.0000000  0.0000000  0.0000000 )
                  (  0.0000000  0.0000000  1.0000000 )


      isym =  8     inv. 180 deg rotation - cart. axis [1,-1,0]  

 cryst.   s( 8) = (     0          1          0      )
                  (     1          0          0      )
                  (     0          0          1      )

 cart.    s( 8) = (  0.0000000  1.0000000  0.0000000 )
                  (  1.0000000  0.0000000  0.0000000 )
                  (  0.0000000  0.0000000  1.0000000 )


   Cartesian axes

     site n.     atom                  positions (alat units)
         1           O   tau(   1) = (   0.5000000   0.5000000   0.6150340  )
         2           C   tau(   2) = (   0.5000000   0.5000000   0.5000000  )

   Crystallographic axes

     site n.     atom                  positions (cryst. coord.)
         1           O   tau(   1) = (  0.5000000  0.5000000  0.5515832  )
         2           C   tau(   2) = (  0.5000000  0.5000000  0.4484168  )

     number of k points=     6 (tetrahedron method)
                       cart. coord. in units 2pi/alat
        k(    1) = (   0.0000000   0.0000000   0.0000000), wk =   0.0740741
        k(    2) = (   0.0000000   0.0000000   0.2989445), wk =   0.1481481
        k(    3) = (   0.0000000   0.3333333   0.0000000), wk =   0.2962963
        k(    4) = (   0.0000000   0.3333333   0.2989445), wk =   0.5925926
        k(    5) = (   0.3333333   0.3333333   0.0000000), wk =   0.2962963
        k(    6) = (   0.3333333   0.3333333   0.2989445), wk =   0.5925926

                       cryst. coord.
        k(    1) = (   0.0000000   0.0000000   0.0000000), wk =   0.0740741
        k(    2) = (   0.0000000   0.0000000   0.3333333), wk =   0.1481481
        k(    3) = (   0.0000000   0.3333333   0.0000000), wk =   0.2962963
        k(    4) = (   0.0000000   0.3333333   0.3333333), wk =   0.5925926
        k(    5) = (   0.3333333   0.3333333   0.0000000), wk =   0.2962963
        k(    6) = (   0.3333333   0.3333333   0.3333333), wk =   0.5925926

     Dense  grid:   167029 G-vectors     FFT dimensions: (  72,  72,  75)

     Dynamical RAM for                 wfc:       2.87 MB

     Dynamical RAM for     wfc (w. buffer):       2.87 MB

     Dynamical RAM for           str. fact:       5.10 MB

     Dynamical RAM for           local pot:       0.00 MB

     Dynamical RAM for          nlocal pot:       5.10 MB

     Dynamical RAM for                qrad:       1.51 MB

     Dynamical RAM for          rho,v,vnew:      16.54 MB

     Dynamical RAM for           G-vectors:      10.83 MB

     Dynamical RAM for          h,s,v(r/c):       0.06 MB

     Dynamical RAM for          <psi|beta>:       0.00 MB

     Dynamical RAM for                 psi:      11.47 MB

     Dynamical RAM for                hpsi:      11.47 MB

     Dynamical RAM for                spsi:      11.47 MB

     Dynamical RAM for      wfcinit/wfcrot:       5.74 MB

     Dynamical RAM for           addusdens:     112.14 MB

     Estimated static dynamical RAM per process >      64.43 MB

     Estimated max dynamical RAM per process >     176.57 MB

     Check: negative core charge=   -0.000035

     The potential is recalculated from file :
     ../co.save/charge-density


     negative rho (up, down):  1.079E-01 0.000E+00
     Starting wfcs are    8 randomized atomic wfcs +    1 random wfcs

     Band Structure Calculation
     Davidson diagonalization with overlap

     Computing kpt #:     1
     total cpu time spent up to now is        4.5 secs

     Computing kpt #:     2
     total cpu time spent up to now is        6.4 secs

     Computing kpt #:     3
     total cpu time spent up to now is        8.6 secs

     Computing kpt #:     4
     total cpu time spent up to now is       11.2 secs

     Computing kpt #:     5
     total cpu time spent up to now is       14.1 secs

     Computing kpt #:     6
     total cpu time spent up to now is       18.1 secs

     ethr =  1.00E-08,  avg # of iterations = 40.0

     total cpu time spent up to now is       18.1 secs

     End of band structure calculation

          k = 0.0000 0.0000 0.0000 ( 20905 PWs)   bands (ev):

   -29.2655 -14.0519 -11.5370 -11.5370  -8.9036  -2.0298  -2.0298  -1.3317
    -0.2098

     occupation numbers 
     1.0000   1.0000   1.0000   1.0000   1.0000   0.0000   0.0000   0.0000
     0.0000

          k = 0.0000 0.0000 0.2989 ( 20901 PWs)   bands (ev):

   -29.2646 -14.0465 -11.5401 -11.5401  -8.9007  -2.0320  -2.0320  -1.2073
    -0.8125

     occupation numbers 
     1.0000   1.0000   1.0000   1.0000   1.0000   0.0000   0.0000   0.0000
     0.0000

          k = 0.0000 0.3333 0.0000 ( 20913 PWs)   bands (ev):

   -29.2649 -14.0484 -11.5423 -11.5367  -8.9015  -2.0406  -2.0329  -1.1588
    -0.6604

     occupation numbers 
     1.0000   1.0000   1.0000   1.0000   1.0000   0.0000   0.0000   0.0000
     0.0000

          k = 0.0000 0.3333 0.2989 ( 20860 PWs)   bands (ev):

   -29.2641 -14.0443 -11.5384 -11.5348  -8.8994  -2.0382  -2.0292  -1.0349
    -0.6463

     occupation numbers 
     1.0000   1.0000   1.0000   1.0000   1.0000   0.0000   0.0000   0.0000
     0.0000

          k = 0.3333 0.3333 0.0000 ( 20861 PWs)   bands (ev):

   -29.2640 -14.0451 -11.5380 -11.5330  -8.8993  -2.0368  -2.0362  -0.9902
    -0.5363

     occupation numbers 
     1.0000   1.0000   1.0000   1.0000   1.0000   0.0000   0.0000   0.0000
     0.0000

          k = 0.3333 0.3333 0.2989 ( 20869 PWs)   bands (ev):

   -29.2646 -14.0466 -11.5373 -11.5339  -8.9009  -2.0381  -2.0369  -0.8665
    -0.4831

     occupation numbers 
     1.0000   1.0000   1.0000   1.0000   1.0000   0.0000   0.0000   0.0000
     0.0000

     the Fermi energy is    -7.4737 ev

     Writing output data file co.save/

     init_run     :      1.02s CPU      1.11s WALL (       1 calls)
     electrons    :     16.41s CPU     16.55s WALL (       1 calls)

     Called by init_run:
     wfcinit      :      0.00s CPU      0.00s WALL (       1 calls)
     wfcinit:atom :      0.02s CPU      0.02s WALL (       6 calls)
     wfcinit:wfcr :      0.81s CPU      0.81s WALL (       6 calls)
     potinit      :      0.16s CPU      0.17s WALL (       1 calls)
     hinit0       :      0.70s CPU      0.71s WALL (       1 calls)

     Called by electrons:
     c_bands      :     16.41s CPU     16.55s WALL (       1 calls)
     v_of_rho     :      0.15s CPU      0.16s WALL (       1 calls)
     v_h          :      0.00s CPU      0.01s WALL (       1 calls)
     v_xc         :      0.15s CPU      0.15s WALL (       1 calls)
     newd         :      0.12s CPU      0.18s WALL (       1 calls)

     Called by c_bands:
     init_us_2    :      0.02s CPU      0.03s WALL (       6 calls)
     cegterg      :     15.50s CPU     15.62s WALL (      14 calls)

     Called by sum_band:

     Called by *egterg:
     h_psi        :     11.59s CPU     11.65s WALL (     260 calls)
     s_psi        :      0.59s CPU      0.62s WALL (     260 calls)
     g_psi        :      0.11s CPU      0.11s WALL (     240 calls)
     cdiaghg      :      0.05s CPU      0.05s WALL (     246 calls)
     cegterg:over :      1.40s CPU      1.41s WALL (     240 calls)
     cegterg:upda :      1.20s CPU      1.21s WALL (     240 calls)
     cegterg:last :      1.04s CPU      1.04s WALL (      37 calls)

     Called by h_psi:
     h_psi:pot    :     11.52s CPU     11.56s WALL (     260 calls)
     h_psi:calbec :      0.66s CPU      0.66s WALL (     260 calls)
     vloc_psi     :     10.26s CPU     10.30s WALL (     260 calls)
     add_vuspsi   :      0.61s CPU      0.61s WALL (     260 calls)

     General routines
     calbec       :      0.66s CPU      0.66s WALL (     260 calls)
     fft          :      0.07s CPU      0.07s WALL (      12 calls)
     fftw         :      8.91s CPU      8.94s WALL (    1950 calls)
     davcio       :      0.00s CPU      0.01s WALL (      12 calls)

     Parallel routines

     PWSCF        :     17.86s CPU     18.11s WALL


   This run was terminated on:   6:29:26  25Jun2021            

=------------------------------------------------------------------------------=
   JOB DONE.
=------------------------------------------------------------------------------=
